<?xml version="1.0" encoding="ISO-8859-1"?>
<modeling>
 <generator>
  <i name="program" type="string">vasp </i>
  <i name="version" type="string">6.4.2  </i>
  <i name="subversion" type="string">20Jul23 (build Mar 15 2024 16:31:38) complex                          parallel </i>
  <i name="platform" type="string">LinuxIFC </i>
  <i name="date" type="string">2025 03 04 </i>
  <i name="time" type="string">19:46:52 </i>
 </generator>
 <incar>
  <i type="string" name="PREC">Accurate</i>
  <i type="string" name="ALGO">Normal</i>
  <i type="int" name="ISPIN">     2</i>
  <i type="int" name="NELM">   200</i>
  <i name="EDIFF">      0.00001000</i>
  <i type="int" name="NSW">     0</i>
  <i name="ENCUT">    680.00000000</i>
  <i name="ENAUG">   1360.00000000</i>
  <v name="MAGMOM">      0.00000000      0.00000000      0.00000000      0.00000000      0.00000000      0.00000000      0.00000000      0.00000000</v>
  <i type="logical" name="LREAL"> F  </i>
  <i type="int" name="ISMEAR">    -5</i>
  <i name="SIGMA">      0.20000000</i>
  <i type="int" name="LMAXMIX">     4</i>
  <i type="logical" name="LWAVE"> T  </i>
  <i type="logical" name="LCHARG"> T  </i>
  <i type="logical" name="LVTOT"> T  </i>
  <i type="int" name="LORBIT">    11</i>
  <i type="logical" name="LELF"> F  </i>
  <i type="logical" name="LASPH"> T  </i>
  <i type="logical" name="LAECHG"> T  </i>
  <i name="HFSCREEN">      0.20000000</i>
  <i type="logical" name="LHFCALC"> T  </i>
  <i type="string" name="GGA">Pe</i>
  <i type="string" name="PRECFOCK">Fast</i>
  <i type="logical" name="LDAU"> F  </i>
  <i type="logical" name="LMIXTAU"> T  </i>
 </incar>
 <primitive_cell>
  <structure name="primitive_cell" >
   <crystal>
    <varray name="basis" >
     <v>       2.83144651      -2.83144651       0.00000000 </v>
     <v>       2.83144651       0.00000000       2.83144651 </v>
     <v>       0.00000000      -2.83144651       2.83144651 </v>
    </varray>
    <i name="volume">     45.39991946 </i>
    <varray name="rec_basis" >
     <v>       0.17658818      -0.17658818      -0.17658818 </v>
     <v>       0.17658818       0.17658818       0.17658818 </v>
     <v>      -0.17658818      -0.17658818       0.17658818 </v>
    </varray>
   </crystal>
   <varray name="positions" >
    <v>       0.00000000       0.00000000       0.00000000 </v>
    <v>       0.75000000       0.75000000       0.75000000 </v>
   </varray>
  </structure>
  <varray name="primitive_index" >
   <v type="int" >        1 </v>
   <v type="int" >        5 </v>
  </varray>
 </primitive_cell>
 <kpoints>
  <generation param="Gamma">
   <v type="int" name="divisions">       4        4        4 </v>
   <v name="usershift">      0.00000000       0.00000000       0.00000000 </v>
   <v name="genvec1">      0.25000000       0.00000000       0.00000000 </v>
   <v name="genvec2">      0.00000000       0.25000000       0.00000000 </v>
   <v name="genvec3">     -0.00000000      -0.00000000       0.25000000 </v>
   <v name="shift">      0.00000000       0.00000000       0.00000000 </v>
  </generation>
  <varray name="kpointlist" >
   <v>       0.00000000       0.00000000       0.00000000 </v>
   <v>       0.25000000       0.00000000       0.00000000 </v>
   <v>       0.50000000       0.00000000       0.00000000 </v>
   <v>       0.25000000       0.25000000       0.00000000 </v>
   <v>       0.50000000       0.25000000       0.00000000 </v>
   <v>       0.50000000       0.50000000       0.00000000 </v>
   <v>       0.25000000       0.25000000       0.25000000 </v>
   <v>       0.50000000       0.25000000       0.25000000 </v>
   <v>       0.50000000       0.50000000       0.25000000 </v>
   <v>       0.50000000       0.50000000       0.50000000 </v>
  </varray>
  <varray name="weights" >
   <v>       0.01562500 </v>
   <v>       0.09375000 </v>
   <v>       0.04687500 </v>
   <v>       0.18750000 </v>
   <v>       0.18750000 </v>
   <v>       0.04687500 </v>
   <v>       0.12500000 </v>
   <v>       0.18750000 </v>
   <v>       0.09375000 </v>
   <v>       0.01562500 </v>
  </varray>
  <varray name="tetrahedronlist"  type="int" >
   <v type="int" >       12        7        8        8        9 </v>
   <v type="int" >       12        8        8        9        9 </v>
   <v type="int" >       12        8        9        9       10 </v>
   <v type="int" >       24        4        5        7        8 </v>
   <v type="int" >       12        5        7        8        8 </v>
   <v type="int" >       12        5        8        8        9 </v>
   <v type="int" >       24        4        5        5        8 </v>
   <v type="int" >       12        5        5        6        8 </v>
   <v type="int" >       12        5        6        8        9 </v>
   <v type="int" >       12        7        8        9       10 </v>
   <v type="int" >       12        4        5        8        9 </v>
   <v type="int" >       12        4        7        8        9 </v>
   <v type="int" >       12        4        5        6        9 </v>
   <v type="int" >       12        5        6        7        8 </v>
   <v type="int" >       12        4        5        6        7 </v>
   <v type="int" >       12        6        7        8        9 </v>
   <v type="int" >       12        2        4        7        8 </v>
   <v type="int" >       12        2        4        5        8 </v>
   <v type="int" >       12        2        3        5        8 </v>
   <v type="int" >       12        4        4        5        7 </v>
   <v type="int" >       12        2        4        4        5 </v>
   <v type="int" >       12        2        3        4        5 </v>
   <v type="int" >       12        3        4        5        5 </v>
   <v type="int" >       12        2        3        4        7 </v>
   <v type="int" >       12        3        4        5        7 </v>
   <v type="int" >       12        3        5        7        8 </v>
   <v type="int" >       12        2        4        4        7 </v>
   <v type="int" >       12        2        2        4        4 </v>
   <v type="int" >       12        1        2        2        4 </v>
   <v type="int" >       12        1        2        4        7 </v>
  </varray>
  <i name="volumeweight">      0.00260417 </i>
 </kpoints>
 <parameters>
  <separator name="general" >
   <i type="string" name="SYSTEM">unknown system</i>
   <i type="logical" name="LCOMPAT"> F  </i>
  </separator>
  <separator name="electronic" >
   <i type="string" name="PREC">accura</i>
   <i name="ENMAX">    680.00000000</i>
   <i name="ENAUG">   1360.00000000</i>
   <i name="EDIFF">      0.00001000</i>
   <i type="int" name="IALGO">    38</i>
   <i type="int" name="IWAVPR">    10</i>
   <i type="int" name="NBANDS">    48</i>
   <i type="int" name="NBANDSLOW">    -1</i>
   <i type="int" name="NBANDSHIGH">    -1</i>
   <i name="NELECT">     72.00000000</i>
   <i type="int" name="TURBO">     0</i>
   <i type="int" name="IRESTART">     0</i>
   <i type="int" name="NREBOOT">     0</i>
   <i type="int" name="NMIN">     0</i>
   <i name="EREF">      0.00000000</i>
   <separator name="electronic smearing" >
    <i type="int" name="ISMEAR">    -5</i>
    <i name="SIGMA">      0.20000000</i>
    <i name="KSPACING">      0.50000000</i>
    <i type="logical" name="KGAMMA"> T  </i>
    <i type="logical" name="KBLOWUP"> T  </i>
   </separator>
   <separator name="electronic projectors" >
    <i type="logical" name="LREAL"> F  </i>
    <v name="ROPT">      0.00000000      0.00000000</v>
    <i type="int" name="LMAXPAW">  -100</i>
    <i type="int" name="LMAXMIX">     4</i>
    <i type="logical" name="NLSPLINE"> F  </i>
   </separator>
   <separator name="electronic startup" >
    <i type="int" name="ISTART">     0</i>
    <i type="int" name="ICHARG">     2</i>
    <i type="int" name="INIWAV">     1</i>
   </separator>
   <separator name="electronic spin" >
    <i type="int" name="ISPIN">     2</i>
    <i type="logical" name="LNONCOLLINEAR"> F  </i>
    <v name="MAGMOM">      0.00000000      0.00000000      0.00000000      0.00000000      0.00000000      0.00000000      0.00000000      0.00000000</v>
    <i name="NUPDOWN">     -1.00000000</i>
    <i type="logical" name="LSORBIT"> F  </i>
    <v name="SAXIS">      0.00000000      0.00000000      1.00000000</v>
    <i type="logical" name="LSPIRAL"> F  </i>
    <v name="QSPIRAL">      0.00000000      0.00000000      0.00000000</v>
    <i type="logical" name="LZEROZ"> F  </i>
   </separator>
   <separator name="electronic exchange-correlation" >
    <i type="logical" name="LASPH"> T  </i>
    <i type="logical" name="LMETAGGA"> F  </i>
   </separator>
   <separator name="electronic convergence" >
    <i type="int" name="NELM">   200</i>
    <i type="int" name="NELMDL">    -5</i>
    <i type="int" name="NELMIN">     2</i>
    <i name="ENINI">    680.00000000</i>
    <separator name="electronic convergence detail" >
     <i type="logical" name="LDIAG"> T  </i>
     <i type="logical" name="LSUBROT"> F  </i>
     <i name="WEIMIN">      0.00000000</i>
     <i name="EBREAK">      0.00000005</i>
     <i name="DEPER">      0.30000000</i>
     <i type="int" name="NRMM">     4</i>
     <i name="TIME">      0.40000000</i>
    </separator>
   </separator>
   <separator name="electronic mixer" >
    <i name="AMIX">      0.40000000</i>
    <i name="BMIX">      1.00000000</i>
    <i name="AMIN">      0.10000000</i>
    <i name="AMIX_MAG">      1.60000000</i>
    <i name="BMIX_MAG">      1.00000000</i>
    <separator name="electronic mixer details" >
     <i type="int" name="IMIX">     1</i>
     <i type="logical" name="MIXFIRST"> F  </i>
     <i type="int" name="MAXMIX">   -45</i>
     <i name="WC">    100.00000000</i>
     <i type="int" name="INIMIX">     1</i>
     <i type="int" name="MIXPRE">     1</i>
     <i type="int" name="MREMOVE">     5</i>
    </separator>
   </separator>
   <separator name="electronic dipolcorrection" >
    <i type="logical" name="LDIPOL"> F  </i>
    <i type="logical" name="LMONO"> F  </i>
    <i type="int" name="IDIPOL">     0</i>
    <i name="EPSILON">      1.00000000</i>
    <v name="DIPOL">   -100.00000000   -100.00000000   -100.00000000</v>
    <i name="EFIELD">      0.00000000</i>
   </separator>
  </separator>
  <separator name="grids" >
   <i type="int" name="NGX">    48</i>
   <i type="int" name="NGY">    48</i>
   <i type="int" name="NGZ">    48</i>
   <i type="int" name="NGXF">    96</i>
   <i type="int" name="NGYF">    96</i>
   <i type="int" name="NGZF">    96</i>
   <i type="logical" name="ADDGRID"> F  </i>
  </separator>
  <separator name="ionic" >
   <i type="int" name="NSW">     0</i>
   <i type="int" name="IBRION">    -1</i>
   <i type="int" name="MDALGO">     0</i>
   <i type="int" name="ISIF">     0</i>
   <i name="PSTRESS">      0.00000000</i>
   <i name="EDIFFG">      0.00010000</i>
   <i type="int" name="NFREE">     0</i>
   <i name="POTIM">      0.50000000</i>
   <i name="SMASS">     -3.00000000</i>
   <i name="SCALEE">      1.00000000</i>
  </separator>
  <separator name="ionic md" >
   <i name="TEBEG">      0.00010000</i>
   <i name="TEEND">      0.00010000</i>
   <i type="int" name="NBLOCK">     1</i>
   <i type="int" name="KBLOCK">     1</i>
   <i type="int" name="NPACO">   256</i>
   <i name="APACO">     10.00000000</i>
  </separator>
  <separator name="symmetry" >
   <i type="int" name="ISYM">     3</i>
   <i name="SYMPREC">      0.00001000</i>
  </separator>
  <separator name="dos" >
   <i type="int" name="LORBIT">    11</i>
   <v name="RWIGS">     -1.00000000     -1.00000000</v>
   <i type="int" name="NEDOS">   301</i>
   <i name="EMIN">     10.00000000</i>
   <i name="EMAX">    -10.00000000</i>
   <i name="EFERMI">      0.00000000</i>
  </separator>
  <separator name="writing" >
   <i type="int" name="NWRITE">     2</i>
   <i type="logical" name="LWAVE"> T  </i>
   <i type="logical" name="LDOWNSAMPLE"> F  </i>
   <i type="logical" name="LCHARG"> T  </i>
   <i type="logical" name="LPARD"> F  </i>
   <i type="logical" name="LVTOT"> T  </i>
   <i type="logical" name="LVHAR"> F  </i>
   <i type="logical" name="LELF"> F  </i>
   <i type="logical" name="LOPTICS"> F  </i>
   <v name="STM">      0.00000000      0.00000000      0.00000000      0.00000000      0.00000000      0.00000000      0.00000000</v>
  </separator>
  <separator name="performance" >
   <i type="int" name="NPAR">    12</i>
   <i type="int" name="NSIM">     4</i>
   <i type="int" name="NBLK">    -1</i>
   <i type="logical" name="LPLANE"> T  </i>
   <i type="logical" name="LSCALAPACK"> T  </i>
   <i type="logical" name="LSCAAWARE"> F  </i>
   <i type="logical" name="LSCALU"> F  </i>
   <i type="logical" name="LASYNC"> F  </i>
   <i type="logical" name="LORBITALREAL"> F  </i>
  </separator>
  <separator name="miscellaneous" >
   <i type="int" name="IDIOT">     3</i>
   <i type="int" name="PHON_NSTRUCT">    -1</i>
   <i type="logical" name="LMUSIC"> F  </i>
   <v name="POMASS">     69.72300000     74.92200000</v>
   <v name="DARWINR">      0.00000000      0.00000000</v>
   <v name="DARWINV">      1.00000000      1.00000000</v>
   <i type="logical" name="LCORR"> T  </i>
  </separator>
  <i type="logical" name="GGA_COMPAT"> T  </i>
  <i type="logical" name="LBERRY"> F  </i>
  <i type="int" name="ICORELEVEL">     0</i>
  <i type="logical" name="LDAU"> F  </i>
  <i type="int" name="I_CONSTRAINED_M">     0</i>
  <separator name="electronic exchange-correlation" >
   <i type="string" name="GGA">PE</i>
   <i type="int" name="VOSKOWN">     0</i>
   <i type="logical" name="LHFCALC"> T  </i>
   <i type="string" name="PRECFOCK">fast</i>
   <i type="logical" name="LSYMGRAD"> F  </i>
   <i type="logical" name="LHFONE"> F  </i>
   <i type="logical" name="LRHFCALC"> F  </i>
   <i type="logical" name="LTHOMAS"> F  </i>
   <i type="logical" name="LMODELHF"> F  </i>
   <i type="logical" name="LFOCKACE"> T  </i>
   <i name="ENCUT4O">     -1.00000000</i>
   <i type="int" name="EXXOEP">     0</i>
   <i type="int" name="FOURORBIT">     0</i>
   <i name="AEXX">      0.25000000</i>
   <i name="HFALPHA">     -1.00000000</i>
   <i name="MCALPHA">      0.00000000</i>
   <i name="ALDAX">      0.75000000</i>
   <i name="AGGAX">      0.75000000</i>
   <i name="ALDAC">      1.00000000</i>
   <i name="AGGAC">      1.00000000</i>
   <i type="int" name="NKREDX">     1</i>
   <i type="int" name="NKREDY">     1</i>
   <i type="int" name="NKREDZ">     1</i>
   <i type="logical" name="SHIFTRED"> F  </i>
   <i type="logical" name="ODDONLY"> F  </i>
   <i type="logical" name="EVENONLY"> F  </i>
   <i type="int" name="LMAXFOCK">     4</i>
   <i type="int" name="NMAXFOCKAE">     1</i>
   <i type="logical" name="LFOCKAEDFT"> F  </i>
   <i name="HFSCREEN">      0.20000000</i>
   <i name="HFSCREENC">      0.20000000</i>
   <i type="int" name="NBANDSGWLOW">     1</i>
  </separator>
  <separator name="vdW DFT" >
   <i type="logical" name="LUSE_VDW"> F  </i>
   <i type="int" name="IVDW_NL">     1</i>
   <i type="logical" name="LSPIN_VDW"> F  </i>
   <i name="Zab_VDW">     -0.84910000</i>
   <i name="PARAM1">      0.12340000</i>
   <i name="PARAM2">      1.00000000</i>
   <i name="PARAM3">      0.00000000</i>
  </separator>
  <separator name="model GW" >
   <i type="int" name="MODEL_GW">     0</i>
   <i name="MODEL_EPS0">     13.61997584</i>
   <i name="MODEL_ALPHA">      1.00000000</i>
  </separator>
  <separator name="linear response parameters" >
   <i type="logical" name="LEPSILON"> F  </i>
   <i type="logical" name="LRPA"> F  </i>
   <i type="logical" name="LNABLA"> F  </i>
   <i type="logical" name="LVEL"> F  </i>
   <i name="CSHIFT">      0.10000000</i>
   <i name="OMEGAMAX">     -1.00000000</i>
   <i name="DEG_THRESHOLD">      0.00200000</i>
   <i name="RTIME">     -0.10000000</i>
   <i name="WPLASMAI">      0.00000000</i>
   <v name="DFIELD">      0.00000000      0.00000000      0.00000000</v>
   <v name="WPLASMA">      0.00000000      0.00000000      0.00000000      0.00000000      0.00000000      0.00000000      0.00000000      0.00000000      0.00000000</v>
  </separator>
  <separator name="orbital magnetization" >
   <i type="logical" name="NUCIND"> F  </i>
   <v name="MAGPOS">      0.00000000      0.00000000      0.00000000</v>
   <i type="logical" name="LNICSALL"> T  </i>
   <i type="logical" name="ORBITALMAG"> F  </i>
   <i type="logical" name="LMAGBLOCH"> F  </i>
   <i type="logical" name="LCHIMAG"> F  </i>
   <i type="logical" name="LGAUGE"> T  </i>
   <i type="int" name="MAGATOM">     0</i>
   <v name="MAGDIPOL">      0.00000000      0.00000000      0.00000000</v>
   <v name="AVECCONST">      0.00000000      0.00000000      0.00000000</v>
  </separator>
  <separator name="response functions" >
   <i type="logical" name="LALL_IN_ONE"> F  </i>
   <i type="int" name="IALL_IN_ONE">    -1</i>
   <i type="int" name="NBANDS_WAVE">    -1</i>
   <i type="logical" name="LFINITE_TEMPERATURE"> F  </i>
   <i type="logical" name="LADDER"> F  </i>
   <i type="logical" name="LRPAFORCE"> F  </i>
   <i type="logical" name="LFXC"> F  </i>
   <i type="logical" name="LHARTREE"> T  </i>
   <i type="int" name="IBSE">     0</i>
   <v type="int" name="KPOINT">    -1     0     0     0</v>
   <i type="logical" name="LTCTC"> F  </i>
   <i type="logical" name="LTCTE"> F  </i>
   <i type="logical" name="LTETE"> F  </i>
   <i type="logical" name="LTRIPLET"> F  </i>
   <i type="logical" name="LFXCEPS"> F  </i>
   <i type="logical" name="LFXHEG"> F  </i>
   <i type="int" name="NATURALO">     2</i>
   <i type="logical" name="LHOLEGF"> F  </i>
   <i type="logical" name="L2ORDER"> F  </i>
   <i type="logical" name="LDMP1"> F  </i>
   <i type="logical" name="LMP2LT"> F  </i>
   <i type="logical" name="LSMP2LT"> F  </i>
   <i type="logical" name="LGWLF"> F  </i>
   <i name="ENCUTGW">     -1.60000002</i>
   <i name="ENCUTGWSOFT">     -1.60000002</i>
   <i name="ENCUTLF">     -1.00000000</i>
   <i type="logical" name="LESF_SPLINES"> F  </i>
   <i type="int" name="LMAXMP2">    -1</i>
   <i name="SCISSOR">      0.00000000</i>
   <i type="int" name="NOMEGA">     0</i>
   <i type="int" name="NOMEGAR">     0</i>
   <i type="int" name="NBANDSGW">    -1</i>
   <i type="int" name="NBANDSO">    -1</i>
   <i type="int" name="NBANDSV">    -1</i>
   <i type="int" name="NELMGW">     1</i>
   <i type="int" name="NELMHF">     1</i>
   <i type="int" name="DIM">     3</i>
   <i type="int" name="IESPILON">     4</i>
   <i type="int" name="ANTIRES">     0</i>
   <i name="OMEGAMAX">    -30.00000000</i>
   <i name="OMEGAMIN">    -30.00000000</i>
   <i name="OMEGATL">   -200.00000000</i>
   <i type="int" name="OMEGAGRID">     0</i>
   <i name="CSHIFT">     -0.10000000</i>
   <i type="logical" name="LSELFENERGY"> F  </i>
   <i type="logical" name="LSPECTRAL"> F  </i>
   <i type="logical" name="LSPECTRALGW"> F  </i>
   <i type="logical" name="LSINGLES"> F  </i>
   <i type="logical" name="LFERMIGW"> F  </i>
   <i type="logical" name="ODDONLYGW"> F  </i>
   <i type="logical" name="EVENONLYGW"> F  </i>
   <i type="int" name="NKREDLFX">     1</i>
   <i type="int" name="NKREDLFY">     1</i>
   <i type="int" name="NKREDLFZ">     1</i>
   <i type="int" name="MAXMEM">  2800</i>
   <i type="int" name="TELESCOPE">     0</i>
   <i type="int" name="NTAUPAR">    -1</i>
   <i type="int" name="NOMEGAPAR">    -1</i>
   <i name="DAMP_NEWTON">      0.80000001</i>
   <i name="LAMBDA">      1.00000000</i>
  </separator>
  <separator name="External order field" >
   <i name="OFIELD_KAPPA">      0.00000000</i>
   <v name="OFIELD_K">      0.00000000      0.00000000      0.00000000</v>
   <i name="OFIELD_Q6_NEAR">      0.00000000</i>
   <i name="OFIELD_Q6_FAR">      0.00000000</i>
   <i name="OFIELD_A">      0.00000000</i>
  </separator>
  <separator name="optional k-points parameters" >
   <i type="int" name="KPOINTS_OPT_MODE">     1</i>
   <i type="logical" name="LKPOINTS_OPT"> F  </i>
  </separator>
 </parameters>
 <atominfo>
  <atoms>       8 </atoms>
  <types>       2 </types>
  <array name="atoms" >
   <dimension dim="1">ion</dimension>
   <field type="string">element</field>
   <field type="int">atomtype</field>
   <set>
    <rc><c>Ga</c><c>   1</c></rc>
    <rc><c>Ga</c><c>   1</c></rc>
    <rc><c>Ga</c><c>   1</c></rc>
    <rc><c>Ga</c><c>   1</c></rc>
    <rc><c>As</c><c>   2</c></rc>
    <rc><c>As</c><c>   2</c></rc>
    <rc><c>As</c><c>   2</c></rc>
    <rc><c>As</c><c>   2</c></rc>
   </set>
  </array>
  <array name="atomtypes" >
   <dimension dim="1">type</dimension>
   <field type="int">atomspertype</field>
   <field type="string">element</field>
   <field>mass</field>
   <field>valence</field>
   <field type="string">pseudopotential</field>
   <set>
    <rc><c>   4</c><c>Ga</c><c>     69.72300000</c><c>     13.00000000</c><c>  PAW_PBE Ga_d 06Jul2010                </c></rc>
    <rc><c>   4</c><c>As</c><c>     74.92200000</c><c>      5.00000000</c><c>  PAW_PBE As 22Sep2009                  </c></rc>
   </set>
  </array>
 </atominfo>
 <structure name="initialpos" >
  <crystal>
   <varray name="basis" >
    <v>       5.66289303       0.00000000       0.00000000 </v>
    <v>      -0.00000000       5.66289303       0.00000000 </v>
    <v>       0.00000000       0.00000000       5.66289303 </v>
   </varray>
   <i name="volume">    181.59967786 </i>
   <varray name="rec_basis" >
    <v>       0.17658818       0.00000000       0.00000000 </v>
    <v>       0.00000000       0.17658818       0.00000000 </v>
    <v>      -0.00000000      -0.00000000       0.17658818 </v>
   </varray>
  </crystal>
  <varray name="positions" >
   <v>       0.00000000       0.00000000       0.00000000 </v>
   <v>       0.50000000       0.50000000       0.00000000 </v>
   <v>       0.50000000       0.00000000       0.50000000 </v>
   <v>       0.00000000       0.50000000       0.50000000 </v>
   <v>       0.25000000       0.25000000       0.25000000 </v>
   <v>       0.25000000       0.75000000       0.75000000 </v>
   <v>       0.75000000       0.75000000       0.25000000 </v>
   <v>       0.75000000       0.25000000       0.75000000 </v>
  </varray>
 </structure>
 <calculation>
  <scstep>
   <time name="dav">    0.56    2.30</time>
   <time name="total">    1.03    2.78</time>
   <energy>
    <i name="alphaZ">    239.97917566 </i>
    <i name="ewald">  -5053.70092138 </i>
    <i name="hartreedc">  -2907.86236181 </i>
    <i name="XCdc">    129.37264964 </i>
    <i name="pawpsdc">   7000.88056845 </i>
    <i name="pawaedc"> -11966.80977022 </i>
    <i name="eentropy">      0.00000000 </i>
    <i name="bandstr">     -7.48418829 </i>
    <i name="atom">   9262.88096869 </i>
    <i name="e_fr_energy">  -3302.74387927 </i>
    <i name="e_wo_entrp">  -3302.74387927 </i>
    <i name="e_0_energy">  -3302.74387927 </i>
   </energy>
  </scstep>
  <scstep>
   <time name="dav">    0.39    0.39</time>
   <time name="total">    0.39    0.39</time>
   <energy>
    <i name="e_fr_energy">  -3890.30667426 </i>
    <i name="e_wo_entrp">  -3890.30667426 </i>
    <i name="e_0_energy">  -3890.30667426 </i>
   </energy>
  </scstep>
  <scstep>
   <time name="dav">    0.42    0.45</time>
   <time name="total">    0.42    0.45</time>
   <energy>
    <i name="e_fr_energy">  -3970.18180698 </i>
    <i name="e_wo_entrp">  -3970.18180698 </i>
    <i name="e_0_energy">  -3970.18180698 </i>
   </energy>
  </scstep>
  <scstep>
   <time name="dav">    0.41    0.43</time>
   <time name="total">    0.41    0.43</time>
   <energy>
    <i name="e_fr_energy">  -3973.82299506 </i>
    <i name="e_wo_entrp">  -3973.82299506 </i>
    <i name="e_0_energy">  -3973.82299506 </i>
   </energy>
  </scstep>
  <scstep>
   <time name="dav">   34.06   34.40</time>
   <time name="total">   35.30   35.69</time>
   <energy>
    <i name="e_fr_energy">    -40.28982195 </i>
    <i name="e_wo_entrp">    -40.28982195 </i>
    <i name="e_0_energy">    -40.28982195 </i>
   </energy>
  </scstep>
  <scstep>
   <time name="dav">   34.20   34.28</time>
   <time name="total">   35.47   35.57</time>
   <energy>
    <i name="e_fr_energy">    -39.67876616 </i>
    <i name="e_wo_entrp">    -39.67876616 </i>
    <i name="e_0_energy">    -39.67876616 </i>
   </energy>
  </scstep>
  <scstep>
   <time name="dav">   34.26   34.35</time>
   <time name="total">   35.53   35.64</time>
   <energy>
    <i name="e_fr_energy">    -39.59961656 </i>
    <i name="e_wo_entrp">    -39.59961656 </i>
    <i name="e_0_energy">    -39.59961656 </i>
   </energy>
  </scstep>
  <scstep>
   <time name="dav">   34.43   34.52</time>
   <time name="total">   35.70   35.80</time>
   <energy>
    <i name="e_fr_energy">    -39.58094457 </i>
    <i name="e_wo_entrp">    -39.58094457 </i>
    <i name="e_0_energy">    -39.58094457 </i>
   </energy>
  </scstep>
  <scstep>
   <time name="dav">   34.15   34.24</time>
   <time name="total">   35.43   35.53</time>
   <energy>
    <i name="e_fr_energy">    -39.56863433 </i>
    <i name="e_wo_entrp">    -39.56863433 </i>
    <i name="e_0_energy">    -39.56863433 </i>
   </energy>
  </scstep>
  <scstep>
   <time name="dav">   33.27   33.35</time>
   <time name="total">   34.60   34.70</time>
   <energy>
    <i name="e_fr_energy">    -39.56459931 </i>
    <i name="e_wo_entrp">    -39.56459931 </i>
    <i name="e_0_energy">    -39.56459931 </i>
   </energy>
  </scstep>
  <scstep>
   <time name="dav">   33.41   33.49</time>
   <time name="total">   34.70   34.81</time>
   <energy>
    <i name="e_fr_energy">    -39.56377881 </i>
    <i name="e_wo_entrp">    -39.56377881 </i>
    <i name="e_0_energy">    -39.56377881 </i>
   </energy>
  </scstep>
  <scstep>
   <time name="dav">   33.96   34.05</time>
   <time name="total">   35.24   35.35</time>
   <energy>
    <i name="e_fr_energy">    -39.56374048 </i>
    <i name="e_wo_entrp">    -39.56374048 </i>
    <i name="e_0_energy">    -39.56374048 </i>
   </energy>
  </scstep>
  <scstep>
   <time name="dav">   34.20   34.29</time>
   <time name="total">   35.47   35.57</time>
   <energy>
    <i name="e_fr_energy">    -39.56383537 </i>
    <i name="e_wo_entrp">    -39.56383537 </i>
    <i name="e_0_energy">    -39.56383537 </i>
   </energy>
  </scstep>
  <scstep>
   <time name="dav">   34.33   34.41</time>
   <time name="total">   35.60   35.70</time>
   <energy>
    <i name="e_fr_energy">    -39.56392184 </i>
    <i name="e_wo_entrp">    -39.56392184 </i>
    <i name="e_0_energy">    -39.56392184 </i>
   </energy>
  </scstep>
  <scstep>
   <time name="dav">   34.11   34.20</time>
   <time name="total">   35.38   35.48</time>
   <energy>
    <i name="e_fr_energy">    -39.56397955 </i>
    <i name="e_wo_entrp">    -39.56397955 </i>
    <i name="e_0_energy">    -39.56397955 </i>
   </energy>
  </scstep>
  <scstep>
   <time name="dav">   34.20   34.28</time>
   <time name="total">   35.46   35.57</time>
   <energy>
    <i name="e_fr_energy">    -39.56401322 </i>
    <i name="e_wo_entrp">    -39.56401322 </i>
    <i name="e_0_energy">    -39.56401322 </i>
   </energy>
  </scstep>
  <scstep>
   <time name="dav">   34.13   34.22</time>
   <time name="total">   35.40   35.50</time>
   <energy>
    <i name="e_fr_energy">    -39.56403195 </i>
    <i name="e_wo_entrp">    -39.56403195 </i>
    <i name="e_0_energy">    -39.56403195 </i>
   </energy>
  </scstep>
  <scstep>
   <time name="dav">   33.76   33.84</time>
   <time name="total">   34.95   35.06</time>
   <energy>
    <i name="alphaZ">    239.97917566 </i>
    <i name="ewald">  -5053.70092138 </i>
    <i name="hartreedc">  -2898.60296161 </i>
    <i name="XCdc">     94.68352490 </i>
    <i name="pawpsdc">   8403.29231255 </i>
    <i name="pawaedc">  -9625.93382851 </i>
    <i name="eentropy">      0.00000000 </i>
    <i name="bandstr">   -628.28338461 </i>
    <i name="atom">   9262.88096869 </i>
    <i name="e_fr_energy">    -39.56404178 </i>
    <i name="e_wo_entrp">    -39.56404178 </i>
    <i name="e_0_energy">    -39.56404178 </i>
   </energy>
  </scstep>
  <structure>
   <crystal>
    <varray name="basis" >
     <v>       5.66289303       0.00000000       0.00000000 </v>
     <v>      -0.00000000       5.66289303       0.00000000 </v>
     <v>       0.00000000       0.00000000       5.66289303 </v>
    </varray>
    <i name="volume">    181.59967786 </i>
    <varray name="rec_basis" >
     <v>       0.17658818       0.00000000       0.00000000 </v>
     <v>       0.00000000       0.17658818       0.00000000 </v>
     <v>      -0.00000000      -0.00000000       0.17658818 </v>
    </varray>
   </crystal>
   <varray name="positions" >
    <v>       0.00000000       0.00000000       0.00000000 </v>
    <v>       0.50000000       0.50000000       0.00000000 </v>
    <v>       0.50000000       0.00000000       0.50000000 </v>
    <v>       0.00000000       0.50000000       0.50000000 </v>
    <v>       0.25000000       0.25000000       0.25000000 </v>
    <v>       0.25000000       0.75000000       0.75000000 </v>
    <v>       0.75000000       0.75000000       0.25000000 </v>
    <v>       0.75000000       0.25000000       0.75000000 </v>
   </varray>
  </structure>
  <varray name="forces" >
   <v>       0.00000000      -0.00000000       0.00000000 </v>
   <v>      -0.00000000      -0.00000000       0.00000000 </v>
   <v>       0.00000000       0.00000000      -0.00000000 </v>
   <v>       0.00000000      -0.00000000      -0.00000000 </v>
   <v>       0.00000000      -0.00000000       0.00000000 </v>
   <v>       0.00000000       0.00000000       0.00000000 </v>
   <v>      -0.00000000      -0.00000000      -0.00000000 </v>
   <v>      -0.00000000       0.00000000      -0.00000000 </v>
  </varray>
  <energy>
   <i name="e_fr_energy">    -39.56404178 </i>
   <i name="e_wo_entrp">    -39.56404178 </i>
   <i name="e_0_energy">    -39.56404178 </i>
  </energy>
  <time name="totalsc">  531.20  534.89</time>
  <eigenvalues>
   <array>
    <dimension dim="1">band</dimension>
    <dimension dim="2">kpoint</dimension>
    <dimension dim="3">spin</dimension>
    <field>eigene</field>
    <field>occ</field>
    <set>
     <set comment="spin 1">
      <set comment="kpoint 1">
       <r>  -13.9994    1.0000 </r>
       <r>  -13.9994    1.0000 </r>
       <r>  -13.9994    1.0000 </r>
       <r>  -13.9177    1.0000 </r>
       <r>  -13.9177    1.0000 </r>
       <r>  -13.9177    1.0000 </r>
       <r>  -13.8743    1.0000 </r>
       <r>  -13.8743    1.0000 </r>
       <r>  -13.8743    1.0000 </r>
       <r>  -13.8742    1.0000 </r>
       <r>  -13.8742    1.0000 </r>
       <r>  -13.8742    1.0000 </r>
       <r>  -13.8595    1.0000 </r>
       <r>  -13.8595    1.0000 </r>
       <r>  -13.8594    1.0000 </r>
       <r>  -13.8379    1.0000 </r>
       <r>  -13.8379    1.0000 </r>
       <r>  -13.8271    1.0000 </r>
       <r>  -13.8271    1.0000 </r>
       <r>  -13.8271    1.0000 </r>
       <r>  -10.4857    1.0000 </r>
       <r>   -7.7687    1.0000 </r>
       <r>   -7.7687    1.0000 </r>
       <r>   -7.7687    1.0000 </r>
       <r>   -3.9101    1.0000 </r>
       <r>   -3.9101    1.0000 </r>
       <r>   -3.9101    1.0000 </r>
       <r>    0.5637    1.0000 </r>
       <r>    0.5637    1.0000 </r>
       <r>    0.5637    1.0000 </r>
       <r>    0.5637    1.0000 </r>
       <r>    0.5637    1.0000 </r>
       <r>    0.5637    1.0000 </r>
       <r>    3.4526    1.0000 </r>
       <r>    3.4526    1.0000 </r>
       <r>    3.4526    1.0000 </r>
       <r>    4.8321    0.0000 </r>
       <r>    5.5446    0.0000 </r>
       <r>    5.5446    0.0000 </r>
       <r>    5.5446    0.0000 </r>
       <r>    5.7990    0.0000 </r>
       <r>    5.7990    0.0000 </r>
       <r>    5.7990    0.0000 </r>
       <r>    8.0081    0.0000 </r>
       <r>    8.0081    0.0000 </r>
       <r>    8.0081    0.0000 </r>
       <r>   12.0217    0.0000 </r>
       <r>   14.5513    0.0000 </r>
      </set>
      <set comment="kpoint 2">
       <r>  -13.9936    1.0000 </r>
       <r>  -13.9936    1.0000 </r>
       <r>  -13.9890    1.0000 </r>
       <r>  -13.9316    1.0000 </r>
       <r>  -13.9115    1.0000 </r>
       <r>  -13.9115    1.0000 </r>
       <r>  -13.8818    1.0000 </r>
       <r>  -13.8818    1.0000 </r>
       <r>  -13.8808    1.0000 </r>
       <r>  -13.8808    1.0000 </r>
       <r>  -13.8759    1.0000 </r>
       <r>  -13.8759    1.0000 </r>
       <r>  -13.8558    1.0000 </r>
       <r>  -13.8544    1.0000 </r>
       <r>  -13.8544    1.0000 </r>
       <r>  -13.8404    1.0000 </r>
       <r>  -13.8364    1.0000 </r>
       <r>  -13.8301    1.0000 </r>
       <r>  -13.8300    1.0000 </r>
       <r>  -13.8287    1.0000 </r>
       <r>  -10.2260    1.0000 </r>
       <r>   -8.4387    1.0000 </r>
       <r>   -7.7390    1.0000 </r>
       <r>   -7.7390    1.0000 </r>
       <r>   -3.8059    1.0000 </r>
       <r>   -3.8059    1.0000 </r>
       <r>   -2.8992    1.0000 </r>
       <r>    0.0696    1.0000 </r>
       <r>    0.0696    1.0000 </r>
       <r>    0.1877    1.0000 </r>
       <r>    0.1877    1.0000 </r>
       <r>    0.8460    1.0000 </r>
       <r>    0.8460    1.0000 </r>
       <r>    1.5024    1.0000 </r>
       <r>    2.7657    1.0000 </r>
       <r>    2.7657    1.0000 </r>
       <r>    5.5682    0.0000 </r>
       <r>    6.4632    0.0000 </r>
       <r>    6.6184    0.0000 </r>
       <r>    6.6951    0.0000 </r>
       <r>    6.6951    0.0000 </r>
       <r>    6.9748    0.0000 </r>
       <r>    6.9748    0.0000 </r>
       <r>    7.3083    0.0000 </r>
       <r>    9.0158    0.0000 </r>
       <r>    9.0158    0.0000 </r>
       <r>   12.3525    0.0000 </r>
       <r>   12.7057    0.0000 </r>
      </set>
      <set comment="kpoint 3">
       <r>  -13.9868    1.0000 </r>
       <r>  -13.9868    1.0000 </r>
       <r>  -13.9620    1.0000 </r>
       <r>  -13.9620    1.0000 </r>
       <r>  -13.8964    1.0000 </r>
       <r>  -13.8964    1.0000 </r>
       <r>  -13.8964    1.0000 </r>
       <r>  -13.8964    1.0000 </r>
       <r>  -13.8902    1.0000 </r>
       <r>  -13.8902    1.0000 </r>
       <r>  -13.8771    1.0000 </r>
       <r>  -13.8770    1.0000 </r>
       <r>  -13.8483    1.0000 </r>
       <r>  -13.8483    1.0000 </r>
       <r>  -13.8476    1.0000 </r>
       <r>  -13.8476    1.0000 </r>
       <r>  -13.8346    1.0000 </r>
       <r>  -13.8345    1.0000 </r>
       <r>  -13.8326    1.0000 </r>
       <r>  -13.8325    1.0000 </r>
       <r>   -9.4866    1.0000 </r>
       <r>   -9.4866    1.0000 </r>
       <r>   -7.7087    1.0000 </r>
       <r>   -7.7087    1.0000 </r>
       <r>   -3.6869    1.0000 </r>
       <r>   -3.6869    1.0000 </r>
       <r>   -0.8514    1.0000 </r>
       <r>   -0.8514    1.0000 </r>
       <r>   -0.3620    1.0000 </r>
       <r>   -0.3620    1.0000 </r>
       <r>   -0.1232    1.0000 </r>
       <r>   -0.1232    1.0000 </r>
       <r>    1.6480    1.0000 </r>
       <r>    1.6480    1.0000 </r>
       <r>    1.6480    1.0000 </r>
       <r>    1.6480    1.0000 </r>
       <r>    6.1402    0.0000 </r>
       <r>    6.1402    0.0000 </r>
       <r>    7.5437    0.0000 </r>
       <r>    7.5437    0.0000 </r>
       <r>    8.9199    0.0000 </r>
       <r>    8.9199    0.0000 </r>
       <r>    9.0679    0.0000 </r>
       <r>    9.0679    0.0000 </r>
       <r>    9.8509    0.0000 </r>
       <r>    9.8509    0.0000 </r>
       <r>   10.3237    0.0000 </r>
       <r>   10.3237    0.0000 </r>
      </set>
      <set comment="kpoint 4">
       <r>  -13.9885    1.0000 </r>
       <r>  -13.9847    1.0000 </r>
       <r>  -13.9847    1.0000 </r>
       <r>  -13.9381    1.0000 </r>
       <r>  -13.9110    1.0000 </r>
       <r>  -13.9077    1.0000 </r>
       <r>  -13.8873    1.0000 </r>
       <r>  -13.8872    1.0000 </r>
       <r>  -13.8853    1.0000 </r>
       <r>  -13.8822    1.0000 </r>
       <r>  -13.8822    1.0000 </r>
       <r>  -13.8803    1.0000 </r>
       <r>  -13.8515    1.0000 </r>
       <r>  -13.8515    1.0000 </r>
       <r>  -13.8503    1.0000 </r>
       <r>  -13.8399    1.0000 </r>
       <r>  -13.8368    1.0000 </r>
       <r>  -13.8324    1.0000 </r>
       <r>  -13.8309    1.0000 </r>
       <r>  -13.8309    1.0000 </r>
       <r>   -9.9773    1.0000 </r>
       <r>   -8.3159    1.0000 </r>
       <r>   -8.3159    1.0000 </r>
       <r>   -7.8113    1.0000 </r>
       <r>   -3.6925    1.0000 </r>
       <r>   -3.0481    1.0000 </r>
       <r>   -3.0481    1.0000 </r>
       <r>   -0.7041    1.0000 </r>
       <r>    0.1937    1.0000 </r>
       <r>    0.1937    1.0000 </r>
       <r>    0.1976    1.0000 </r>
       <r>    0.8012    1.0000 </r>
       <r>    0.8012    1.0000 </r>
       <r>    1.0229    1.0000 </r>
       <r>    2.0320    1.0000 </r>
       <r>    3.1563    1.0000 </r>
       <r>    6.1080    0.0000 </r>
       <r>    6.5956    0.0000 </r>
       <r>    6.8100    0.0000 </r>
       <r>    6.8100    0.0000 </r>
       <r>    7.4463    0.0000 </r>
       <r>    7.4463    0.0000 </r>
       <r>    8.3071    0.0000 </r>
       <r>    8.5276    0.0000 </r>
       <r>    8.9605    0.0000 </r>
       <r>    9.7629    0.0000 </r>
       <r>   10.6810    0.0000 </r>
       <r>   10.6810    0.0000 </r>
      </set>
      <set comment="kpoint 5">
       <r>  -13.9812    1.0000 </r>
       <r>  -13.9812    1.0000 </r>
       <r>  -13.9618    1.0000 </r>
       <r>  -13.9618    1.0000 </r>
       <r>  -13.8993    1.0000 </r>
       <r>  -13.8993    1.0000 </r>
       <r>  -13.8968    1.0000 </r>
       <r>  -13.8968    1.0000 </r>
       <r>  -13.8927    1.0000 </r>
       <r>  -13.8927    1.0000 </r>
       <r>  -13.8831    1.0000 </r>
       <r>  -13.8831    1.0000 </r>
       <r>  -13.8452    1.0000 </r>
       <r>  -13.8451    1.0000 </r>
       <r>  -13.8448    1.0000 </r>
       <r>  -13.8447    1.0000 </r>
       <r>  -13.8356    1.0000 </r>
       <r>  -13.8355    1.0000 </r>
       <r>  -13.8338    1.0000 </r>
       <r>  -13.8337    1.0000 </r>
       <r>   -9.2768    1.0000 </r>
       <r>   -9.2768    1.0000 </r>
       <r>   -8.0388    1.0000 </r>
       <r>   -8.0388    1.0000 </r>
       <r>   -3.3950    1.0000 </r>
       <r>   -3.3950    1.0000 </r>
       <r>   -1.5266    1.0000 </r>
       <r>   -1.5266    1.0000 </r>
       <r>   -0.6414    1.0000 </r>
       <r>   -0.6414    1.0000 </r>
       <r>    0.9096    1.0000 </r>
       <r>    0.9096    1.0000 </r>
       <r>    0.9848    1.0000 </r>
       <r>    0.9848    1.0000 </r>
       <r>    2.0807    1.0000 </r>
       <r>    2.0807    1.0000 </r>
       <r>    7.3024    0.0000 </r>
       <r>    7.3025    0.0000 </r>
       <r>    7.5977    0.0000 </r>
       <r>    7.5977    0.0000 </r>
       <r>    7.8262    0.0000 </r>
       <r>    7.8262    0.0000 </r>
       <r>    9.5673    0.0000 </r>
       <r>    9.5673    0.0000 </r>
       <r>    9.6275    0.0000 </r>
       <r>    9.6275    0.0000 </r>
       <r>    9.8188    0.0000 </r>
       <r>    9.8188    0.0000 </r>
      </set>
      <set comment="kpoint 6">
       <r>  -13.9688    1.0000 </r>
       <r>  -13.9688    1.0000 </r>
       <r>  -13.9688    1.0000 </r>
       <r>  -13.9687    1.0000 </r>
       <r>  -13.8964    1.0000 </r>
       <r>  -13.8963    1.0000 </r>
       <r>  -13.8963    1.0000 </r>
       <r>  -13.8963    1.0000 </r>
       <r>  -13.8954    1.0000 </r>
       <r>  -13.8954    1.0000 </r>
       <r>  -13.8953    1.0000 </r>
       <r>  -13.8953    1.0000 </r>
       <r>  -13.8398    1.0000 </r>
       <r>  -13.8397    1.0000 </r>
       <r>  -13.8397    1.0000 </r>
       <r>  -13.8397    1.0000 </r>
       <r>  -13.8382    1.0000 </r>
       <r>  -13.8381    1.0000 </r>
       <r>  -13.8381    1.0000 </r>
       <r>  -13.8381    1.0000 </r>
       <r>   -8.7143    1.0000 </r>
       <r>   -8.7143    1.0000 </r>
       <r>   -8.7143    1.0000 </r>
       <r>   -8.7143    1.0000 </r>
       <r>   -2.6021    1.0000 </r>
       <r>   -2.6021    1.0000 </r>
       <r>   -2.6021    1.0000 </r>
       <r>   -2.6021    1.0000 </r>
       <r>   -0.1457    1.0000 </r>
       <r>   -0.1457    1.0000 </r>
       <r>   -0.1457    1.0000 </r>
       <r>   -0.1457    1.0000 </r>
       <r>    2.1502    1.0000 </r>
       <r>    2.1502    1.0000 </r>
       <r>    2.1502    1.0000 </r>
       <r>    2.1502    1.0000 </r>
       <r>    7.0056    0.0000 </r>
       <r>    7.0056    0.0000 </r>
       <r>    7.0056    0.0000 </r>
       <r>    7.0056    0.0000 </r>
       <r>    9.9979    0.0000 </r>
       <r>    9.9981    0.0000 </r>
       <r>   10.0016    0.0000 </r>
       <r>   10.0162    0.0000 </r>
       <r>   10.0812    0.0000 </r>
       <r>   10.0839    0.0000 </r>
       <r>   10.1169    0.0000 </r>
       <r>   10.1542    0.0000 </r>
      </set>
      <set comment="kpoint 7">
       <r>  -13.9813    1.0000 </r>
       <r>  -13.9813    1.0000 </r>
       <r>  -13.9813    1.0000 </r>
       <r>  -13.9445    1.0000 </r>
       <r>  -13.9075    1.0000 </r>
       <r>  -13.9075    1.0000 </r>
       <r>  -13.8902    1.0000 </r>
       <r>  -13.8901    1.0000 </r>
       <r>  -13.8901    1.0000 </r>
       <r>  -13.8861    1.0000 </r>
       <r>  -13.8861    1.0000 </r>
       <r>  -13.8861    1.0000 </r>
       <r>  -13.8477    1.0000 </r>
       <r>  -13.8477    1.0000 </r>
       <r>  -13.8476    1.0000 </r>
       <r>  -13.8379    1.0000 </r>
       <r>  -13.8379    1.0000 </r>
       <r>  -13.8323    1.0000 </r>
       <r>  -13.8323    1.0000 </r>
       <r>  -13.8323    1.0000 </r>
       <r>   -9.7434    1.0000 </r>
       <r>   -8.2626    1.0000 </r>
       <r>   -8.2626    1.0000 </r>
       <r>   -8.2626    1.0000 </r>
       <r>   -3.3037    1.0000 </r>
       <r>   -3.3037    1.0000 </r>
       <r>   -3.3037    1.0000 </r>
       <r>   -0.9368    1.0000 </r>
       <r>   -0.0011    1.0000 </r>
       <r>   -0.0011    1.0000 </r>
       <r>   -0.0011    1.0000 </r>
       <r>    1.2625    1.0000 </r>
       <r>    1.2625    1.0000 </r>
       <r>    1.2625    1.0000 </r>
       <r>    2.7352    1.0000 </r>
       <r>    2.7352    1.0000 </r>
       <r>    5.6986    0.0000 </r>
       <r>    6.3723    0.0000 </r>
       <r>    6.3723    0.0000 </r>
       <r>    6.3723    0.0000 </r>
       <r>    8.9199    0.0000 </r>
       <r>    8.9199    0.0000 </r>
       <r>    9.0741    0.0000 </r>
       <r>    9.0741    0.0000 </r>
       <r>    9.0741    0.0000 </r>
       <r>   10.3672    0.0000 </r>
       <r>   10.5863    0.0000 </r>
       <r>   10.5863    0.0000 </r>
      </set>
      <set comment="kpoint 8">
       <r>  -13.9776    1.0000 </r>
       <r>  -13.9776    1.0000 </r>
       <r>  -13.9632    1.0000 </r>
       <r>  -13.9631    1.0000 </r>
       <r>  -13.9005    1.0000 </r>
       <r>  -13.9005    1.0000 </r>
       <r>  -13.8980    1.0000 </r>
       <r>  -13.8979    1.0000 </r>
       <r>  -13.8950    1.0000 </r>
       <r>  -13.8950    1.0000 </r>
       <r>  -13.8884    1.0000 </r>
       <r>  -13.8884    1.0000 </r>
       <r>  -13.8423    1.0000 </r>
       <r>  -13.8422    1.0000 </r>
       <r>  -13.8421    1.0000 </r>
       <r>  -13.8420    1.0000 </r>
       <r>  -13.8354    1.0000 </r>
       <r>  -13.8354    1.0000 </r>
       <r>  -13.8341    1.0000 </r>
       <r>  -13.8341    1.0000 </r>
       <r>   -9.0975    1.0000 </r>
       <r>   -9.0975    1.0000 </r>
       <r>   -8.2064    1.0000 </r>
       <r>   -8.2064    1.0000 </r>
       <r>   -3.5461    1.0000 </r>
       <r>   -3.5461    1.0000 </r>
       <r>   -2.3287    1.0000 </r>
       <r>   -2.3287    1.0000 </r>
       <r>    0.0167    1.0000 </r>
       <r>    0.0167    1.0000 </r>
       <r>    1.3837    1.0000 </r>
       <r>    1.3837    1.0000 </r>
       <r>    1.6221    1.0000 </r>
       <r>    1.6221    1.0000 </r>
       <r>    1.9166    1.0000 </r>
       <r>    1.9166    1.0000 </r>
       <r>    6.4701    0.0000 </r>
       <r>    6.4701    0.0000 </r>
       <r>    7.3114    0.0000 </r>
       <r>    7.3114    0.0000 </r>
       <r>    8.3894    0.0000 </r>
       <r>    8.3894    0.0000 </r>
       <r>    8.4737    0.0000 </r>
       <r>    8.4737    0.0000 </r>
       <r>    9.9348    0.0000 </r>
       <r>    9.9348    0.0000 </r>
       <r>   10.5419    0.0000 </r>
       <r>   10.5435    0.0000 </r>
      </set>
      <set comment="kpoint 9">
       <r>  -13.9693    1.0000 </r>
       <r>  -13.9693    1.0000 </r>
       <r>  -13.9693    1.0000 </r>
       <r>  -13.9692    1.0000 </r>
       <r>  -13.8981    1.0000 </r>
       <r>  -13.8980    1.0000 </r>
       <r>  -13.8980    1.0000 </r>
       <r>  -13.8980    1.0000 </r>
       <r>  -13.8976    1.0000 </r>
       <r>  -13.8976    1.0000 </r>
       <r>  -13.8976    1.0000 </r>
       <r>  -13.8976    1.0000 </r>
       <r>  -13.8376    1.0000 </r>
       <r>  -13.8375    1.0000 </r>
       <r>  -13.8375    1.0000 </r>
       <r>  -13.8375    1.0000 </r>
       <r>  -13.8369    1.0000 </r>
       <r>  -13.8367    1.0000 </r>
       <r>  -13.8367    1.0000 </r>
       <r>  -13.8367    1.0000 </r>
       <r>   -8.6503    1.0000 </r>
       <r>   -8.6503    1.0000 </r>
       <r>   -8.6503    1.0000 </r>
       <r>   -8.6503    1.0000 </r>
       <r>   -3.2706    1.0000 </r>
       <r>   -3.2706    1.0000 </r>
       <r>   -3.2706    1.0000 </r>
       <r>   -3.2706    1.0000 </r>
       <r>    0.9973    1.0000 </r>
       <r>    0.9973    1.0000 </r>
       <r>    0.9973    1.0000 </r>
       <r>    0.9973    1.0000 </r>
       <r>    2.1892    1.0000 </r>
       <r>    2.1892    1.0000 </r>
       <r>    2.1892    1.0000 </r>
       <r>    2.1892    1.0000 </r>
       <r>    6.3368    0.0000 </r>
       <r>    6.3368    0.0000 </r>
       <r>    6.3368    0.0000 </r>
       <r>    6.3368    0.0000 </r>
       <r>    8.8131    0.0000 </r>
       <r>    8.8131    0.0000 </r>
       <r>    8.8131    0.0000 </r>
       <r>    8.8131    0.0000 </r>
       <r>    9.3870    0.0000 </r>
       <r>    9.3870    0.0000 </r>
       <r>    9.3870    0.0000 </r>
       <r>    9.3870    0.0000 </r>
      </set>
      <set comment="kpoint 10">
       <r>  -13.9699    1.0000 </r>
       <r>  -13.9699    1.0000 </r>
       <r>  -13.9699    1.0000 </r>
       <r>  -13.9698    1.0000 </r>
       <r>  -13.8997    1.0000 </r>
       <r>  -13.8997    1.0000 </r>
       <r>  -13.8997    1.0000 </r>
       <r>  -13.8997    1.0000 </r>
       <r>  -13.8997    1.0000 </r>
       <r>  -13.8997    1.0000 </r>
       <r>  -13.8997    1.0000 </r>
       <r>  -13.8997    1.0000 </r>
       <r>  -13.8356    1.0000 </r>
       <r>  -13.8356    1.0000 </r>
       <r>  -13.8355    1.0000 </r>
       <r>  -13.8355    1.0000 </r>
       <r>  -13.8355    1.0000 </r>
       <r>  -13.8355    1.0000 </r>
       <r>  -13.8355    1.0000 </r>
       <r>  -13.8355    1.0000 </r>
       <r>   -8.5820    1.0000 </r>
       <r>   -8.5820    1.0000 </r>
       <r>   -8.5820    1.0000 </r>
       <r>   -8.5820    1.0000 </r>
       <r>   -3.7327    1.0000 </r>
       <r>   -3.7327    1.0000 </r>
       <r>   -3.7327    1.0000 </r>
       <r>   -3.7327    1.0000 </r>
       <r>    2.2295    1.0000 </r>
       <r>    2.2295    1.0000 </r>
       <r>    2.2295    1.0000 </r>
       <r>    2.2295    1.0000 </r>
       <r>    2.2295    1.0000 </r>
       <r>    2.2295    1.0000 </r>
       <r>    2.2295    1.0000 </r>
       <r>    2.2295    1.0000 </r>
       <r>    5.2109    0.0000 </r>
       <r>    5.2109    0.0000 </r>
       <r>    5.2109    0.0000 </r>
       <r>    5.2109    0.0000 </r>
       <r>    8.9272    0.0000 </r>
       <r>    8.9272    0.0000 </r>
       <r>    8.9272    0.0000 </r>
       <r>    8.9272    0.0000 </r>
       <r>    8.9272    0.0000 </r>
       <r>    8.9272    0.0000 </r>
       <r>    8.9272    0.0000 </r>
       <r>    8.9272    0.0000 </r>
      </set>
     </set>
     <set comment="spin 2">
      <set comment="kpoint 1">
       <r>  -13.9994    1.0000 </r>
       <r>  -13.9994    1.0000 </r>
       <r>  -13.9994    1.0000 </r>
       <r>  -13.9177    1.0000 </r>
       <r>  -13.9177    1.0000 </r>
       <r>  -13.9177    1.0000 </r>
       <r>  -13.8743    1.0000 </r>
       <r>  -13.8743    1.0000 </r>
       <r>  -13.8743    1.0000 </r>
       <r>  -13.8742    1.0000 </r>
       <r>  -13.8742    1.0000 </r>
       <r>  -13.8742    1.0000 </r>
       <r>  -13.8595    1.0000 </r>
       <r>  -13.8595    1.0000 </r>
       <r>  -13.8594    1.0000 </r>
       <r>  -13.8379    1.0000 </r>
       <r>  -13.8379    1.0000 </r>
       <r>  -13.8271    1.0000 </r>
       <r>  -13.8271    1.0000 </r>
       <r>  -13.8271    1.0000 </r>
       <r>  -10.4857    1.0000 </r>
       <r>   -7.7687    1.0000 </r>
       <r>   -7.7687    1.0000 </r>
       <r>   -7.7687    1.0000 </r>
       <r>   -3.9101    1.0000 </r>
       <r>   -3.9101    1.0000 </r>
       <r>   -3.9101    1.0000 </r>
       <r>    0.5637    1.0000 </r>
       <r>    0.5637    1.0000 </r>
       <r>    0.5637    1.0000 </r>
       <r>    0.5637    1.0000 </r>
       <r>    0.5637    1.0000 </r>
       <r>    0.5637    1.0000 </r>
       <r>    3.4526    1.0000 </r>
       <r>    3.4526    1.0000 </r>
       <r>    3.4526    1.0000 </r>
       <r>    4.8321    0.0000 </r>
       <r>    5.5446    0.0000 </r>
       <r>    5.5446    0.0000 </r>
       <r>    5.5446    0.0000 </r>
       <r>    5.7990    0.0000 </r>
       <r>    5.7990    0.0000 </r>
       <r>    5.7990    0.0000 </r>
       <r>    8.0081    0.0000 </r>
       <r>    8.0081    0.0000 </r>
       <r>    8.0081    0.0000 </r>
       <r>   12.0217    0.0000 </r>
       <r>   14.5513    0.0000 </r>
      </set>
      <set comment="kpoint 2">
       <r>  -13.9936    1.0000 </r>
       <r>  -13.9936    1.0000 </r>
       <r>  -13.9890    1.0000 </r>
       <r>  -13.9316    1.0000 </r>
       <r>  -13.9115    1.0000 </r>
       <r>  -13.9115    1.0000 </r>
       <r>  -13.8818    1.0000 </r>
       <r>  -13.8818    1.0000 </r>
       <r>  -13.8808    1.0000 </r>
       <r>  -13.8808    1.0000 </r>
       <r>  -13.8759    1.0000 </r>
       <r>  -13.8759    1.0000 </r>
       <r>  -13.8558    1.0000 </r>
       <r>  -13.8544    1.0000 </r>
       <r>  -13.8544    1.0000 </r>
       <r>  -13.8404    1.0000 </r>
       <r>  -13.8364    1.0000 </r>
       <r>  -13.8301    1.0000 </r>
       <r>  -13.8300    1.0000 </r>
       <r>  -13.8287    1.0000 </r>
       <r>  -10.2260    1.0000 </r>
       <r>   -8.4387    1.0000 </r>
       <r>   -7.7390    1.0000 </r>
       <r>   -7.7390    1.0000 </r>
       <r>   -3.8059    1.0000 </r>
       <r>   -3.8059    1.0000 </r>
       <r>   -2.8992    1.0000 </r>
       <r>    0.0696    1.0000 </r>
       <r>    0.0696    1.0000 </r>
       <r>    0.1877    1.0000 </r>
       <r>    0.1877    1.0000 </r>
       <r>    0.8460    1.0000 </r>
       <r>    0.8460    1.0000 </r>
       <r>    1.5024    1.0000 </r>
       <r>    2.7657    1.0000 </r>
       <r>    2.7657    1.0000 </r>
       <r>    5.5682    0.0000 </r>
       <r>    6.4632    0.0000 </r>
       <r>    6.6184    0.0000 </r>
       <r>    6.6951    0.0000 </r>
       <r>    6.6951    0.0000 </r>
       <r>    6.9748    0.0000 </r>
       <r>    6.9748    0.0000 </r>
       <r>    7.3083    0.0000 </r>
       <r>    9.0158    0.0000 </r>
       <r>    9.0158    0.0000 </r>
       <r>   12.3525    0.0000 </r>
       <r>   12.7148    0.0000 </r>
      </set>
      <set comment="kpoint 3">
       <r>  -13.9868    1.0000 </r>
       <r>  -13.9868    1.0000 </r>
       <r>  -13.9620    1.0000 </r>
       <r>  -13.9620    1.0000 </r>
       <r>  -13.8964    1.0000 </r>
       <r>  -13.8964    1.0000 </r>
       <r>  -13.8964    1.0000 </r>
       <r>  -13.8964    1.0000 </r>
       <r>  -13.8902    1.0000 </r>
       <r>  -13.8902    1.0000 </r>
       <r>  -13.8771    1.0000 </r>
       <r>  -13.8770    1.0000 </r>
       <r>  -13.8483    1.0000 </r>
       <r>  -13.8483    1.0000 </r>
       <r>  -13.8476    1.0000 </r>
       <r>  -13.8476    1.0000 </r>
       <r>  -13.8346    1.0000 </r>
       <r>  -13.8345    1.0000 </r>
       <r>  -13.8326    1.0000 </r>
       <r>  -13.8325    1.0000 </r>
       <r>   -9.4866    1.0000 </r>
       <r>   -9.4866    1.0000 </r>
       <r>   -7.7087    1.0000 </r>
       <r>   -7.7087    1.0000 </r>
       <r>   -3.6869    1.0000 </r>
       <r>   -3.6869    1.0000 </r>
       <r>   -0.8514    1.0000 </r>
       <r>   -0.8514    1.0000 </r>
       <r>   -0.3620    1.0000 </r>
       <r>   -0.3620    1.0000 </r>
       <r>   -0.1232    1.0000 </r>
       <r>   -0.1232    1.0000 </r>
       <r>    1.6480    1.0000 </r>
       <r>    1.6480    1.0000 </r>
       <r>    1.6480    1.0000 </r>
       <r>    1.6480    1.0000 </r>
       <r>    6.1402    0.0000 </r>
       <r>    6.1402    0.0000 </r>
       <r>    7.5437    0.0000 </r>
       <r>    7.5437    0.0000 </r>
       <r>    8.9199    0.0000 </r>
       <r>    8.9199    0.0000 </r>
       <r>    9.0679    0.0000 </r>
       <r>    9.0679    0.0000 </r>
       <r>    9.8509    0.0000 </r>
       <r>    9.8509    0.0000 </r>
       <r>   10.3237    0.0000 </r>
       <r>   10.3237    0.0000 </r>
      </set>
      <set comment="kpoint 4">
       <r>  -13.9885    1.0000 </r>
       <r>  -13.9847    1.0000 </r>
       <r>  -13.9847    1.0000 </r>
       <r>  -13.9381    1.0000 </r>
       <r>  -13.9110    1.0000 </r>
       <r>  -13.9077    1.0000 </r>
       <r>  -13.8873    1.0000 </r>
       <r>  -13.8872    1.0000 </r>
       <r>  -13.8853    1.0000 </r>
       <r>  -13.8822    1.0000 </r>
       <r>  -13.8822    1.0000 </r>
       <r>  -13.8803    1.0000 </r>
       <r>  -13.8515    1.0000 </r>
       <r>  -13.8515    1.0000 </r>
       <r>  -13.8503    1.0000 </r>
       <r>  -13.8399    1.0000 </r>
       <r>  -13.8368    1.0000 </r>
       <r>  -13.8324    1.0000 </r>
       <r>  -13.8309    1.0000 </r>
       <r>  -13.8309    1.0000 </r>
       <r>   -9.9773    1.0000 </r>
       <r>   -8.3159    1.0000 </r>
       <r>   -8.3159    1.0000 </r>
       <r>   -7.8113    1.0000 </r>
       <r>   -3.6925    1.0000 </r>
       <r>   -3.0481    1.0000 </r>
       <r>   -3.0481    1.0000 </r>
       <r>   -0.7041    1.0000 </r>
       <r>    0.1937    1.0000 </r>
       <r>    0.1937    1.0000 </r>
       <r>    0.1976    1.0000 </r>
       <r>    0.8012    1.0000 </r>
       <r>    0.8012    1.0000 </r>
       <r>    1.0229    1.0000 </r>
       <r>    2.0320    1.0000 </r>
       <r>    3.1563    1.0000 </r>
       <r>    6.1080    0.0000 </r>
       <r>    6.5956    0.0000 </r>
       <r>    6.8100    0.0000 </r>
       <r>    6.8100    0.0000 </r>
       <r>    7.4463    0.0000 </r>
       <r>    7.4463    0.0000 </r>
       <r>    8.3071    0.0000 </r>
       <r>    8.5276    0.0000 </r>
       <r>    8.9605    0.0000 </r>
       <r>    9.7629    0.0000 </r>
       <r>   10.6810    0.0000 </r>
       <r>   10.6810    0.0000 </r>
      </set>
      <set comment="kpoint 5">
       <r>  -13.9812    1.0000 </r>
       <r>  -13.9812    1.0000 </r>
       <r>  -13.9618    1.0000 </r>
       <r>  -13.9618    1.0000 </r>
       <r>  -13.8993    1.0000 </r>
       <r>  -13.8993    1.0000 </r>
       <r>  -13.8968    1.0000 </r>
       <r>  -13.8968    1.0000 </r>
       <r>  -13.8927    1.0000 </r>
       <r>  -13.8927    1.0000 </r>
       <r>  -13.8831    1.0000 </r>
       <r>  -13.8831    1.0000 </r>
       <r>  -13.8452    1.0000 </r>
       <r>  -13.8451    1.0000 </r>
       <r>  -13.8448    1.0000 </r>
       <r>  -13.8447    1.0000 </r>
       <r>  -13.8356    1.0000 </r>
       <r>  -13.8355    1.0000 </r>
       <r>  -13.8338    1.0000 </r>
       <r>  -13.8337    1.0000 </r>
       <r>   -9.2768    1.0000 </r>
       <r>   -9.2768    1.0000 </r>
       <r>   -8.0388    1.0000 </r>
       <r>   -8.0388    1.0000 </r>
       <r>   -3.3950    1.0000 </r>
       <r>   -3.3950    1.0000 </r>
       <r>   -1.5266    1.0000 </r>
       <r>   -1.5266    1.0000 </r>
       <r>   -0.6414    1.0000 </r>
       <r>   -0.6414    1.0000 </r>
       <r>    0.9096    1.0000 </r>
       <r>    0.9096    1.0000 </r>
       <r>    0.9848    1.0000 </r>
       <r>    0.9848    1.0000 </r>
       <r>    2.0807    1.0000 </r>
       <r>    2.0807    1.0000 </r>
       <r>    7.3024    0.0000 </r>
       <r>    7.3025    0.0000 </r>
       <r>    7.5977    0.0000 </r>
       <r>    7.5977    0.0000 </r>
       <r>    7.8262    0.0000 </r>
       <r>    7.8262    0.0000 </r>
       <r>    9.5673    0.0000 </r>
       <r>    9.5673    0.0000 </r>
       <r>    9.6275    0.0000 </r>
       <r>    9.6275    0.0000 </r>
       <r>    9.8188    0.0000 </r>
       <r>    9.8188    0.0000 </r>
      </set>
      <set comment="kpoint 6">
       <r>  -13.9688    1.0000 </r>
       <r>  -13.9688    1.0000 </r>
       <r>  -13.9688    1.0000 </r>
       <r>  -13.9687    1.0000 </r>
       <r>  -13.8964    1.0000 </r>
       <r>  -13.8963    1.0000 </r>
       <r>  -13.8963    1.0000 </r>
       <r>  -13.8963    1.0000 </r>
       <r>  -13.8954    1.0000 </r>
       <r>  -13.8954    1.0000 </r>
       <r>  -13.8953    1.0000 </r>
       <r>  -13.8953    1.0000 </r>
       <r>  -13.8398    1.0000 </r>
       <r>  -13.8397    1.0000 </r>
       <r>  -13.8397    1.0000 </r>
       <r>  -13.8397    1.0000 </r>
       <r>  -13.8382    1.0000 </r>
       <r>  -13.8381    1.0000 </r>
       <r>  -13.8381    1.0000 </r>
       <r>  -13.8381    1.0000 </r>
       <r>   -8.7143    1.0000 </r>
       <r>   -8.7143    1.0000 </r>
       <r>   -8.7143    1.0000 </r>
       <r>   -8.7143    1.0000 </r>
       <r>   -2.6021    1.0000 </r>
       <r>   -2.6021    1.0000 </r>
       <r>   -2.6021    1.0000 </r>
       <r>   -2.6021    1.0000 </r>
       <r>   -0.1457    1.0000 </r>
       <r>   -0.1457    1.0000 </r>
       <r>   -0.1457    1.0000 </r>
       <r>   -0.1457    1.0000 </r>
       <r>    2.1502    1.0000 </r>
       <r>    2.1502    1.0000 </r>
       <r>    2.1502    1.0000 </r>
       <r>    2.1502    1.0000 </r>
       <r>    7.0056    0.0000 </r>
       <r>    7.0056    0.0000 </r>
       <r>    7.0056    0.0000 </r>
       <r>    7.0056    0.0000 </r>
       <r>    9.9976    0.0000 </r>
       <r>    9.9985    0.0000 </r>
       <r>    9.9997    0.0000 </r>
       <r>   10.0078    0.0000 </r>
       <r>   10.0813    0.0000 </r>
       <r>   10.0849    0.0000 </r>
       <r>   10.1023    0.0000 </r>
       <r>   10.1530    0.0000 </r>
      </set>
      <set comment="kpoint 7">
       <r>  -13.9813    1.0000 </r>
       <r>  -13.9813    1.0000 </r>
       <r>  -13.9813    1.0000 </r>
       <r>  -13.9445    1.0000 </r>
       <r>  -13.9075    1.0000 </r>
       <r>  -13.9075    1.0000 </r>
       <r>  -13.8902    1.0000 </r>
       <r>  -13.8901    1.0000 </r>
       <r>  -13.8901    1.0000 </r>
       <r>  -13.8861    1.0000 </r>
       <r>  -13.8861    1.0000 </r>
       <r>  -13.8861    1.0000 </r>
       <r>  -13.8477    1.0000 </r>
       <r>  -13.8477    1.0000 </r>
       <r>  -13.8476    1.0000 </r>
       <r>  -13.8379    1.0000 </r>
       <r>  -13.8379    1.0000 </r>
       <r>  -13.8323    1.0000 </r>
       <r>  -13.8323    1.0000 </r>
       <r>  -13.8323    1.0000 </r>
       <r>   -9.7434    1.0000 </r>
       <r>   -8.2626    1.0000 </r>
       <r>   -8.2626    1.0000 </r>
       <r>   -8.2626    1.0000 </r>
       <r>   -3.3037    1.0000 </r>
       <r>   -3.3037    1.0000 </r>
       <r>   -3.3037    1.0000 </r>
       <r>   -0.9368    1.0000 </r>
       <r>   -0.0011    1.0000 </r>
       <r>   -0.0011    1.0000 </r>
       <r>   -0.0011    1.0000 </r>
       <r>    1.2625    1.0000 </r>
       <r>    1.2625    1.0000 </r>
       <r>    1.2625    1.0000 </r>
       <r>    2.7352    1.0000 </r>
       <r>    2.7352    1.0000 </r>
       <r>    5.6986    0.0000 </r>
       <r>    6.3723    0.0000 </r>
       <r>    6.3723    0.0000 </r>
       <r>    6.3723    0.0000 </r>
       <r>    8.9199    0.0000 </r>
       <r>    8.9199    0.0000 </r>
       <r>    9.0741    0.0000 </r>
       <r>    9.0741    0.0000 </r>
       <r>    9.0741    0.0000 </r>
       <r>   10.3672    0.0000 </r>
       <r>   10.5863    0.0000 </r>
       <r>   10.5863    0.0000 </r>
      </set>
      <set comment="kpoint 8">
       <r>  -13.9776    1.0000 </r>
       <r>  -13.9776    1.0000 </r>
       <r>  -13.9632    1.0000 </r>
       <r>  -13.9631    1.0000 </r>
       <r>  -13.9005    1.0000 </r>
       <r>  -13.9005    1.0000 </r>
       <r>  -13.8980    1.0000 </r>
       <r>  -13.8979    1.0000 </r>
       <r>  -13.8950    1.0000 </r>
       <r>  -13.8950    1.0000 </r>
       <r>  -13.8884    1.0000 </r>
       <r>  -13.8884    1.0000 </r>
       <r>  -13.8423    1.0000 </r>
       <r>  -13.8422    1.0000 </r>
       <r>  -13.8421    1.0000 </r>
       <r>  -13.8420    1.0000 </r>
       <r>  -13.8354    1.0000 </r>
       <r>  -13.8354    1.0000 </r>
       <r>  -13.8341    1.0000 </r>
       <r>  -13.8341    1.0000 </r>
       <r>   -9.0975    1.0000 </r>
       <r>   -9.0975    1.0000 </r>
       <r>   -8.2064    1.0000 </r>
       <r>   -8.2064    1.0000 </r>
       <r>   -3.5461    1.0000 </r>
       <r>   -3.5461    1.0000 </r>
       <r>   -2.3287    1.0000 </r>
       <r>   -2.3287    1.0000 </r>
       <r>    0.0167    1.0000 </r>
       <r>    0.0167    1.0000 </r>
       <r>    1.3837    1.0000 </r>
       <r>    1.3837    1.0000 </r>
       <r>    1.6221    1.0000 </r>
       <r>    1.6221    1.0000 </r>
       <r>    1.9166    1.0000 </r>
       <r>    1.9166    1.0000 </r>
       <r>    6.4701    0.0000 </r>
       <r>    6.4701    0.0000 </r>
       <r>    7.3114    0.0000 </r>
       <r>    7.3114    0.0000 </r>
       <r>    8.3894    0.0000 </r>
       <r>    8.3894    0.0000 </r>
       <r>    8.4737    0.0000 </r>
       <r>    8.4737    0.0000 </r>
       <r>    9.9348    0.0000 </r>
       <r>    9.9348    0.0000 </r>
       <r>   10.5420    0.0000 </r>
       <r>   10.5479    0.0000 </r>
      </set>
      <set comment="kpoint 9">
       <r>  -13.9693    1.0000 </r>
       <r>  -13.9693    1.0000 </r>
       <r>  -13.9693    1.0000 </r>
       <r>  -13.9692    1.0000 </r>
       <r>  -13.8981    1.0000 </r>
       <r>  -13.8980    1.0000 </r>
       <r>  -13.8980    1.0000 </r>
       <r>  -13.8980    1.0000 </r>
       <r>  -13.8976    1.0000 </r>
       <r>  -13.8976    1.0000 </r>
       <r>  -13.8976    1.0000 </r>
       <r>  -13.8976    1.0000 </r>
       <r>  -13.8376    1.0000 </r>
       <r>  -13.8375    1.0000 </r>
       <r>  -13.8375    1.0000 </r>
       <r>  -13.8375    1.0000 </r>
       <r>  -13.8369    1.0000 </r>
       <r>  -13.8367    1.0000 </r>
       <r>  -13.8367    1.0000 </r>
       <r>  -13.8367    1.0000 </r>
       <r>   -8.6503    1.0000 </r>
       <r>   -8.6503    1.0000 </r>
       <r>   -8.6503    1.0000 </r>
       <r>   -8.6503    1.0000 </r>
       <r>   -3.2706    1.0000 </r>
       <r>   -3.2706    1.0000 </r>
       <r>   -3.2706    1.0000 </r>
       <r>   -3.2706    1.0000 </r>
       <r>    0.9973    1.0000 </r>
       <r>    0.9973    1.0000 </r>
       <r>    0.9973    1.0000 </r>
       <r>    0.9973    1.0000 </r>
       <r>    2.1892    1.0000 </r>
       <r>    2.1892    1.0000 </r>
       <r>    2.1892    1.0000 </r>
       <r>    2.1892    1.0000 </r>
       <r>    6.3368    0.0000 </r>
       <r>    6.3368    0.0000 </r>
       <r>    6.3368    0.0000 </r>
       <r>    6.3368    0.0000 </r>
       <r>    8.8131    0.0000 </r>
       <r>    8.8131    0.0000 </r>
       <r>    8.8131    0.0000 </r>
       <r>    8.8131    0.0000 </r>
       <r>    9.3870    0.0000 </r>
       <r>    9.3870    0.0000 </r>
       <r>    9.3870    0.0000 </r>
       <r>    9.3870    0.0000 </r>
      </set>
      <set comment="kpoint 10">
       <r>  -13.9699    1.0000 </r>
       <r>  -13.9699    1.0000 </r>
       <r>  -13.9698    1.0000 </r>
       <r>  -13.9698    1.0000 </r>
       <r>  -13.8997    1.0000 </r>
       <r>  -13.8997    1.0000 </r>
       <r>  -13.8997    1.0000 </r>
       <r>  -13.8997    1.0000 </r>
       <r>  -13.8997    1.0000 </r>
       <r>  -13.8997    1.0000 </r>
       <r>  -13.8997    1.0000 </r>
       <r>  -13.8997    1.0000 </r>
       <r>  -13.8356    1.0000 </r>
       <r>  -13.8356    1.0000 </r>
       <r>  -13.8355    1.0000 </r>
       <r>  -13.8355    1.0000 </r>
       <r>  -13.8355    1.0000 </r>
       <r>  -13.8355    1.0000 </r>
       <r>  -13.8355    1.0000 </r>
       <r>  -13.8355    1.0000 </r>
       <r>   -8.5820    1.0000 </r>
       <r>   -8.5820    1.0000 </r>
       <r>   -8.5820    1.0000 </r>
       <r>   -8.5820    1.0000 </r>
       <r>   -3.7327    1.0000 </r>
       <r>   -3.7327    1.0000 </r>
       <r>   -3.7327    1.0000 </r>
       <r>   -3.7327    1.0000 </r>
       <r>    2.2295    1.0000 </r>
       <r>    2.2295    1.0000 </r>
       <r>    2.2295    1.0000 </r>
       <r>    2.2295    1.0000 </r>
       <r>    2.2295    1.0000 </r>
       <r>    2.2295    1.0000 </r>
       <r>    2.2295    1.0000 </r>
       <r>    2.2295    1.0000 </r>
       <r>    5.2109    0.0000 </r>
       <r>    5.2109    0.0000 </r>
       <r>    5.2109    0.0000 </r>
       <r>    5.2109    0.0000 </r>
       <r>    8.9272    0.0000 </r>
       <r>    8.9272    0.0000 </r>
       <r>    8.9272    0.0000 </r>
       <r>    8.9272    0.0000 </r>
       <r>    8.9272    0.0000 </r>
       <r>    8.9272    0.0000 </r>
       <r>    8.9272    0.0000 </r>
       <r>    8.9272    0.0000 </r>
      </set>
     </set>
    </set>
   </array>
  </eigenvalues>
  <separator name="orbital magnetization" >
   <v name="MAGDIPOLOUT">      0.00000000      0.00000000      0.00000000</v>
  </separator>
  <dos>
   <i name="efermi">      3.53778287 </i>
   <total>
    <array>
     <dimension dim="1">gridpoints</dimension>
     <dimension dim="2">spin</dimension>
     <field>energy</field>
     <field>total</field>
     <field>integrated</field>
     <set>
      <set comment="spin 1">
       <r>   -15.9994     0.0000     0.0000 </r>
       <r>   -15.8909     0.0000     0.0000 </r>
       <r>   -15.7824     0.0000     0.0000 </r>
       <r>   -15.6739     0.0000     0.0000 </r>
       <r>   -15.5654     0.0000     0.0000 </r>
       <r>   -15.4569     0.0000     0.0000 </r>
       <r>   -15.3484     0.0000     0.0000 </r>
       <r>   -15.2399     0.0000     0.0000 </r>
       <r>   -15.1314     0.0000     0.0000 </r>
       <r>   -15.0229     0.0000     0.0000 </r>
       <r>   -14.9144     0.0000     0.0000 </r>
       <r>   -14.8059     0.0000     0.0000 </r>
       <r>   -14.6974     0.0000     0.0000 </r>
       <r>   -14.5889     0.0000     0.0000 </r>
       <r>   -14.4804     0.0000     0.0000 </r>
       <r>   -14.3719     0.0000     0.0000 </r>
       <r>   -14.2634     0.0000     0.0000 </r>
       <r>   -14.1549     0.0000     0.0000 </r>
       <r>   -14.0464     0.0000     0.0000 </r>
       <r>   -13.9379    50.6751     3.8815 </r>
       <r>   -13.8294   234.8496    19.9238 </r>
       <r>   -13.7209     0.0000    20.0000 </r>
       <r>   -13.6124     0.0000    20.0000 </r>
       <r>   -13.5039     0.0000    20.0000 </r>
       <r>   -13.3954     0.0000    20.0000 </r>
       <r>   -13.2869     0.0000    20.0000 </r>
       <r>   -13.1784     0.0000    20.0000 </r>
       <r>   -13.0699     0.0000    20.0000 </r>
       <r>   -12.9614     0.0000    20.0000 </r>
       <r>   -12.8529     0.0000    20.0000 </r>
       <r>   -12.7444     0.0000    20.0000 </r>
       <r>   -12.6359     0.0000    20.0000 </r>
       <r>   -12.5274     0.0000    20.0000 </r>
       <r>   -12.4189     0.0000    20.0000 </r>
       <r>   -12.3104     0.0000    20.0000 </r>
       <r>   -12.2019     0.0000    20.0000 </r>
       <r>   -12.0934     0.0000    20.0000 </r>
       <r>   -11.9849     0.0000    20.0000 </r>
       <r>   -11.8764     0.0000    20.0000 </r>
       <r>   -11.7679     0.0000    20.0000 </r>
       <r>   -11.6593     0.0000    20.0000 </r>
       <r>   -11.5508     0.0000    20.0000 </r>
       <r>   -11.4423     0.0000    20.0000 </r>
       <r>   -11.3338     0.0000    20.0000 </r>
       <r>   -11.2253     0.0000    20.0000 </r>
       <r>   -11.1168     0.0000    20.0000 </r>
       <r>   -11.0083     0.0000    20.0000 </r>
       <r>   -10.8998     0.0000    20.0000 </r>
       <r>   -10.7913     0.0000    20.0000 </r>
       <r>   -10.6828     0.0000    20.0000 </r>
       <r>   -10.5743     0.0000    20.0000 </r>
       <r>   -10.4658     0.0015    20.0000 </r>
       <r>   -10.3573     0.0608    20.0026 </r>
       <r>   -10.2488     0.2071    20.0164 </r>
       <r>   -10.1403     0.3965    20.0496 </r>
       <r>   -10.0318     0.5041    20.0993 </r>
       <r>    -9.9233     0.5326    20.1559 </r>
       <r>    -9.8148     0.5807    20.2159 </r>
       <r>    -9.7063     0.6696    20.2834 </r>
       <r>    -9.5978     0.7748    20.3617 </r>
       <r>    -9.4893     0.8890    20.4519 </r>
       <r>    -9.3808     0.9898    20.5542 </r>
       <r>    -9.2723     1.0669    20.6653 </r>
       <r>    -9.1638     1.4500    20.8021 </r>
       <r>    -9.0553     1.6925    20.9766 </r>
       <r>    -8.9468     1.7027    21.1614 </r>
       <r>    -8.8383     1.6441    21.3436 </r>
       <r>    -8.7298     1.5169    21.5157 </r>
       <r>    -8.6213     1.6912    21.6808 </r>
       <r>    -8.5128     2.1217    21.8896 </r>
       <r>    -8.4043     2.8124    22.1440 </r>
       <r>    -8.2958     3.0480    22.4749 </r>
       <r>    -8.1873     3.9382    22.8646 </r>
       <r>    -8.0788     2.9847    23.2372 </r>
       <r>    -7.9703     2.4289    23.5272 </r>
       <r>    -7.8618     1.9817    23.7665 </r>
       <r>    -7.7533     1.7882    23.9824 </r>
       <r>    -7.6448     0.0000    24.0000 </r>
       <r>    -7.5363     0.0000    24.0000 </r>
       <r>    -7.4278     0.0000    24.0000 </r>
       <r>    -7.3192     0.0000    24.0000 </r>
       <r>    -7.2107     0.0000    24.0000 </r>
       <r>    -7.1022     0.0000    24.0000 </r>
       <r>    -6.9937     0.0000    24.0000 </r>
       <r>    -6.8852     0.0000    24.0000 </r>
       <r>    -6.7767     0.0000    24.0000 </r>
       <r>    -6.6682     0.0000    24.0000 </r>
       <r>    -6.5597     0.0000    24.0000 </r>
       <r>    -6.4512     0.0000    24.0000 </r>
       <r>    -6.3427     0.0000    24.0000 </r>
       <r>    -6.2342     0.0000    24.0000 </r>
       <r>    -6.1257     0.0000    24.0000 </r>
       <r>    -6.0172     0.0000    24.0000 </r>
       <r>    -5.9087     0.0000    24.0000 </r>
       <r>    -5.8002     0.0000    24.0000 </r>
       <r>    -5.6917     0.0000    24.0000 </r>
       <r>    -5.5832     0.0000    24.0000 </r>
       <r>    -5.4747     0.0000    24.0000 </r>
       <r>    -5.3662     0.0000    24.0000 </r>
       <r>    -5.2577     0.0000    24.0000 </r>
       <r>    -5.1492     0.0000    24.0000 </r>
       <r>    -5.0407     0.0000    24.0000 </r>
       <r>    -4.9322     0.0000    24.0000 </r>
       <r>    -4.8237     0.0000    24.0000 </r>
       <r>    -4.7152     0.0000    24.0000 </r>
       <r>    -4.6067     0.0000    24.0000 </r>
       <r>    -4.4982     0.0000    24.0000 </r>
       <r>    -4.3897     0.0000    24.0000 </r>
       <r>    -4.2812     0.0000    24.0000 </r>
       <r>    -4.1727     0.0000    24.0000 </r>
       <r>    -4.0642     0.0000    24.0000 </r>
       <r>    -3.9557     0.0000    24.0000 </r>
       <r>    -3.8472     0.2319    24.0049 </r>
       <r>    -3.7387     1.2067    24.0843 </r>
       <r>    -3.6302     2.2391    24.2681 </r>
       <r>    -3.5217     4.1234    24.5865 </r>
       <r>    -3.4132     5.2284    25.1371 </r>
       <r>    -3.3047     3.1349    25.5935 </r>
       <r>    -3.1962     2.0982    25.8629 </r>
       <r>    -3.0877     1.6015    26.0617 </r>
       <r>    -2.9791     1.5732    26.2304 </r>
       <r>    -2.8706     1.0236    26.3695 </r>
       <r>    -2.7621     0.9395    26.4756 </r>
       <r>    -2.6536     0.8979    26.5749 </r>
       <r>    -2.5451     0.8917    26.6719 </r>
       <r>    -2.4366     0.8813    26.7682 </r>
       <r>    -2.3281     0.8608    26.8628 </r>
       <r>    -2.2196     0.8250    26.9542 </r>
       <r>    -2.1111     0.7868    27.0417 </r>
       <r>    -2.0026     0.7461    27.1249 </r>
       <r>    -1.8941     0.7029    27.2035 </r>
       <r>    -1.7856     0.6573    27.2773 </r>
       <r>    -1.6771     0.6093    27.3461 </r>
       <r>    -1.5686     0.5588    27.4095 </r>
       <r>    -1.4601     0.5282    27.4680 </r>
       <r>    -1.3516     0.5114    27.5244 </r>
       <r>    -1.2431     0.4949    27.5790 </r>
       <r>    -1.1346     0.4786    27.6318 </r>
       <r>    -1.0261     0.4626    27.6829 </r>
       <r>    -0.9176     0.4460    27.7322 </r>
       <r>    -0.8091     0.4040    27.7785 </r>
       <r>    -0.7006     0.3572    27.8198 </r>
       <r>    -0.5921     0.5210    27.8611 </r>
       <r>    -0.4836     0.9956    27.9427 </r>
       <r>    -0.3751     1.5483    28.0800 </r>
       <r>    -0.2666     2.1049    28.2791 </r>
       <r>    -0.1581     2.5487    28.5326 </r>
       <r>    -0.0496     2.8353    28.8262 </r>
       <r>     0.0589     3.5267    29.1588 </r>
       <r>     0.1674     3.6771    29.5749 </r>
       <r>     0.2759     2.8303    29.9343 </r>
       <r>     0.3844     1.7808    30.1512 </r>
       <r>     0.4929     1.5342    30.3290 </r>
       <r>     0.6014     1.5224    30.4924 </r>
       <r>     0.7099     1.8405    30.6716 </r>
       <r>     0.8184     5.5207    30.9356 </r>
       <r>     0.9269     3.2856    31.3498 </r>
       <r>     1.0354     4.2317    31.7318 </r>
       <r>     1.1439     4.1998    32.1927 </r>
       <r>     1.2524     3.7829    32.6293 </r>
       <r>     1.3610     2.7393    32.9918 </r>
       <r>     1.4695     2.0411    33.2414 </r>
       <r>     1.5780     1.5126    33.4339 </r>
       <r>     1.6865     1.1940    33.5748 </r>
       <r>     1.7950     1.1889    33.7031 </r>
       <r>     1.9035     1.2951    33.8368 </r>
       <r>     2.0120     4.0807    34.0969 </r>
       <r>     2.1205     4.7983    34.6596 </r>
       <r>     2.2290     2.3757    35.0468 </r>
       <r>     2.3375     1.8558    35.2756 </r>
       <r>     2.4460     1.4199    35.4526 </r>
       <r>     2.5545     1.0678    35.5868 </r>
       <r>     2.6630     0.7994    35.6873 </r>
       <r>     2.7715     0.6482    35.7636 </r>
       <r>     2.8800     0.7282    35.8398 </r>
       <r>     2.9885     0.6330    35.9153 </r>
       <r>     3.0970     0.3627    35.9709 </r>
       <r>     3.2055     0.0980    35.9919 </r>
       <r>     3.3140     0.0309    35.9986 </r>
       <r>     3.4225     0.0015    36.0000 </r>
       <r>     3.5310     0.0000    36.0000 </r>
       <r>     3.6395     0.0000    36.0000 </r>
       <r>     3.7480     0.0000    36.0000 </r>
       <r>     3.8565     0.0000    36.0000 </r>
       <r>     3.9650     0.0000    36.0000 </r>
       <r>     4.0735     0.0000    36.0000 </r>
       <r>     4.1820     0.0000    36.0000 </r>
       <r>     4.2905     0.0000    36.0000 </r>
       <r>     4.3990     0.0000    36.0000 </r>
       <r>     4.5075     0.0000    36.0000 </r>
       <r>     4.6160     0.0000    36.0000 </r>
       <r>     4.7245     0.0000    36.0000 </r>
       <r>     4.8330     0.0000    36.0000 </r>
       <r>     4.9415     0.0030    36.0001 </r>
       <r>     5.0500     0.0119    36.0009 </r>
       <r>     5.1585     0.0267    36.0029 </r>
       <r>     5.2670     0.0489    36.0069 </r>
       <r>     5.3755     0.0862    36.0141 </r>
       <r>     5.4840     0.1401    36.0262 </r>
       <r>     5.5925     0.2181    36.0452 </r>
       <r>     5.7011     0.4022    36.0777 </r>
       <r>     5.8096     0.6273    36.1339 </r>
       <r>     5.9181     0.8219    36.2127 </r>
       <r>     6.0266     0.9880    36.3112 </r>
       <r>     6.1351     1.1512    36.4264 </r>
       <r>     6.2436     1.4545    36.5667 </r>
       <r>     6.3521     2.1958    36.7489 </r>
       <r>     6.4606     3.6420    37.1115 </r>
       <r>     6.5691     3.5468    37.5064 </r>
       <r>     6.6776     3.7546    37.8868 </r>
       <r>     6.7861     3.9353    38.3266 </r>
       <r>     6.8946     3.4203    38.7101 </r>
       <r>     7.0031     3.1751    39.0687 </r>
       <r>     7.1116     2.8833    39.3974 </r>
       <r>     7.2201     2.5850    39.6942 </r>
       <r>     7.3286     2.3261    39.9589 </r>
       <r>     7.4371     1.9772    40.1949 </r>
       <r>     7.5456     1.3681    40.3780 </r>
       <r>     7.6541     0.9968    40.4903 </r>
       <r>     7.7626     1.3128    40.6147 </r>
       <r>     7.8711     1.5405    40.7747 </r>
       <r>     7.9796     1.5447    40.9419 </r>
       <r>     8.0881     1.5751    41.1108 </r>
       <r>     8.1966     1.6383    41.2849 </r>
       <r>     8.3051     1.7345    41.4676 </r>
       <r>     8.4136     1.9225    41.6641 </r>
       <r>     8.5221     2.5454    41.8967 </r>
       <r>     8.6306     3.3742    42.2221 </r>
       <r>     8.7391     3.7282    42.6117 </r>
       <r>     8.8476     3.2302    43.0072 </r>
       <r>     8.9561     2.2294    43.2910 </r>
       <r>     9.0646     2.7540    43.6083 </r>
       <r>     9.1731     2.4143    43.8727 </r>
       <r>     9.2816     2.4204    44.1344 </r>
       <r>     9.3901     2.4861    44.4002 </r>
       <r>     9.4986     2.6032    44.6747 </r>
       <r>     9.6071     2.9163    44.9718 </r>
       <r>     9.7156     3.8775    45.3473 </r>
       <r>     9.8241     3.1248    45.7347 </r>
       <r>     9.9326     2.5712    46.0446 </r>
       <r>    10.0412     2.2972    46.3068 </r>
       <r>    10.1497     2.1676    46.5482 </r>
       <r>    10.2582     2.1216    46.7801 </r>
       <r>    10.3667     2.1453    47.0115 </r>
       <r>    10.4752     2.0026    47.2391 </r>
       <r>    10.5837     1.0965    47.4239 </r>
       <r>    10.6922     0.5158    47.5032 </r>
       <r>    10.8007     0.4779    47.5571 </r>
       <r>    10.9092     0.4416    47.6069 </r>
       <r>    11.0177     0.4069    47.6530 </r>
       <r>    11.1262     0.3737    47.6953 </r>
       <r>    11.2347     0.3420    47.7341 </r>
       <r>    11.3432     0.3119    47.7696 </r>
       <r>    11.4517     0.2833    47.8018 </r>
       <r>    11.5602     0.2562    47.8311 </r>
       <r>    11.6687     0.2307    47.8575 </r>
       <r>    11.7772     0.2068    47.8812 </r>
       <r>    11.8857     0.1843    47.9024 </r>
       <r>    11.9942     0.1635    47.9213 </r>
       <r>    12.1027     0.1409    47.9379 </r>
       <r>    12.2112     0.1087    47.9515 </r>
       <r>    12.3197     0.0664    47.9611 </r>
       <r>    12.4282     0.0475    47.9668 </r>
       <r>    12.5367     0.0422    47.9716 </r>
       <r>    12.6452     0.0377    47.9759 </r>
       <r>    12.7537     0.0337    47.9798 </r>
       <r>    12.8622     0.0297    47.9833 </r>
       <r>    12.9707     0.0260    47.9863 </r>
       <r>    13.0792     0.0226    47.9889 </r>
       <r>    13.1877     0.0194    47.9912 </r>
       <r>    13.2962     0.0164    47.9931 </r>
       <r>    13.4047     0.0137    47.9948 </r>
       <r>    13.5132     0.0112    47.9961 </r>
       <r>    13.6217     0.0090    47.9972 </r>
       <r>    13.7302     0.0070    47.9981 </r>
       <r>    13.8387     0.0053    47.9987 </r>
       <r>    13.9472     0.0038    47.9992 </r>
       <r>    14.0557     0.0026    47.9996 </r>
       <r>    14.1642     0.0016    47.9998 </r>
       <r>    14.2727     0.0008    47.9999 </r>
       <r>    14.3813     0.0003    48.0000 </r>
       <r>    14.4898     0.0000    48.0000 </r>
       <r>    14.5983     0.0000    48.0000 </r>
       <r>    14.7068     0.0000    48.0000 </r>
       <r>    14.8153     0.0000    48.0000 </r>
       <r>    14.9238     0.0000    48.0000 </r>
[...]
        <r>  0.0236  0.0017  0.0027  0.0025  0.0029  0.0026  0.0000  0.0018  0.0000 </r>
        <r>  0.0253  0.0025  0.0025  0.0017  0.0027  0.0018  0.0000  0.0026  0.0000 </r>
        <r>  0.0014  0.0005  0.0000  0.0000  0.0000  0.0000  0.0000  0.0003  0.0000 </r>
        <r>  0.0016  0.0000  0.0005  0.0000  0.0003  0.0000  0.0000  0.0000  0.0000 </r>
        <r>  0.0006  0.0000  0.0000  0.0005  0.0000  0.0003  0.0000  0.0000  0.0000 </r>
        <r>  0.5218  0.0000  0.0000  0.0000  0.0000  0.0000  0.0000  0.0000  0.0000 </r>
       </set>
       <set comment="band 25">
        <r>  0.2555  0.0000  0.0000  0.0002  0.0000  0.0000  0.0000  0.0000  0.0000 </r>
        <r>  0.0000  0.0002  0.0200  0.0000  0.0001  0.0000  0.0000  0.0000  0.0000 </r>
        <r>  0.0005  0.0200  0.0002  0.0000  0.0000  0.0000  0.0000  0.0001  0.0000 </r>
        <r>  0.0024  0.0000  0.0000  0.0200  0.0000  0.0001  0.0000  0.0000  0.0000 </r>
        <r>  0.0067  0.0183  0.0156  0.0103  0.0002  0.0001  0.0000  0.0002  0.0000 </r>
        <r>  0.0054  0.0156  0.0183  0.0127  0.0002  0.0002  0.0000  0.0002  0.0000 </r>
        <r>  0.0082  0.0103  0.0127  0.0183  0.0002  0.0002  0.0000  0.0001  0.0000 </r>
        <r>  0.0096  0.0127  0.0103  0.0156  0.0001  0.0002  0.0000  0.0002  0.0000 </r>
       </set>
       <set comment="band 26">
        <r>  0.0002  0.0061  0.0140  0.0001  0.0001  0.0000  0.0000  0.0000  0.0000 </r>
        <r>  0.1792  0.0001  0.0000  0.0061  0.0000  0.0000  0.0000  0.0000  0.0000 </r>
        <r>  0.0778  0.0000  0.0001  0.0140  0.0000  0.0001  0.0000  0.0000  0.0000 </r>
        <r>  0.0013  0.0140  0.0061  0.0000  0.0000  0.0000  0.0000  0.0001  0.0000 </r>
        <r>  0.0011  0.0288  0.0256  0.0005  0.0003  0.0000  0.0000  0.0004  0.0000 </r>
        <r>  0.0003  0.0256  0.0288  0.0021  0.0004  0.0000  0.0000  0.0003  0.0000 </r>
        <r>  0.0134  0.0005  0.0021  0.0288  0.0000  0.0004  0.0000  0.0000  0.0000 </r>
        <r>  0.0151  0.0021  0.0005  0.0256  0.0000  0.0003  0.0000  0.0000  0.0000 </r>
       </set>
       <set comment="band 27">
        <r>  0.0005  0.0072  0.0022  0.0108  0.0000  0.0001  0.0000  0.0000  0.0000 </r>
        <r>  0.0279  0.0108  0.0000  0.0072  0.0000  0.0000  0.0000  0.0001  0.0000 </r>
        <r>  0.0917  0.0000  0.0108  0.0022  0.0001  0.0000  0.0000  0.0000  0.0000 </r>
        <r>  0.1384  0.0022  0.0072  0.0000  0.0000  0.0000  0.0000  0.0000  0.0000 </r>
        <r>  0.0215  0.0025  0.0130  0.0003  0.0002  0.0000  0.0000  0.0000  0.0000 </r>
        <r>  0.0002  0.0130  0.0025  0.0411  0.0000  0.0005  0.0000  0.0002  0.0000 </r>
        <r>  0.0068  0.0003  0.0411  0.0025  0.0005  0.0000  0.0000  0.0000  0.0000 </r>
        <r>  0.0013  0.0411  0.0003  0.0130  0.0000  0.0002  0.0000  0.0005  0.0000 </r>
       </set>
       <set comment="band 28">
        <r>  0.0023  0.0069  0.0040  0.0091  0.0000  0.0000  0.0000  0.0000  0.0000 </r>
        <r>  0.0514  0.0091  0.0002  0.0069  0.0000  0.0000  0.0000  0.0000  0.0000 </r>
        <r>  0.0885  0.0002  0.0091  0.0040  0.0000  0.0000  0.0000  0.0000  0.0000 </r>
        <r>  0.1164  0.0040  0.0069  0.0002  0.0000  0.0000  0.0000  0.0000  0.0000 </r>
        <r>  0.0005  0.0073  0.0027  0.0459  0.0000  0.0006  0.0000  0.0001  0.0000 </r>
        <r>  0.0240  0.0027  0.0073  0.0010  0.0001  0.0000  0.0000  0.0000  0.0000 </r>
        <r>  0.0014  0.0459  0.0010  0.0073  0.0000  0.0001  0.0000  0.0006  0.0000 </r>
        <r>  0.0038  0.0010  0.0459  0.0027  0.0006  0.0000  0.0000  0.0000  0.0000 </r>
       </set>
       <set comment="band 29">
        <r>  0.0000  0.0628  0.0172  0.0279  0.0024  0.0038  0.0000  0.0086  0.0000 </r>
        <r>  0.0000  0.0158  0.0001  0.0230  0.0000  0.0031  0.0008  0.0022  0.0001 </r>
        <r>  0.0000  0.0006  0.0017  0.0012  0.0002  0.0002  0.0004  0.0001  0.0024 </r>
        <r>  0.0000  0.0094  0.0098  0.0002  0.0013  0.0000  0.0001  0.0013  0.0013 </r>
        <r>  0.0000  0.0220  0.0225  0.0006  0.0002  0.0000  0.0000  0.0002  0.0002 </r>
        <r>  0.0000  0.1403  0.0385  0.0650  0.0004  0.0007  0.0000  0.0014  0.0000 </r>
        <r>  0.0000  0.0016  0.0040  0.0023  0.0000  0.0000  0.0001  0.0000  0.0003 </r>
        <r>  0.0000  0.0367  0.0002  0.0504  0.0000  0.0005  0.0001  0.0004  0.0000 </r>
       </set>
       <set comment="band 30">
        <r>  0.0000  0.0260  0.0029  0.0708  0.0004  0.0097  0.0001  0.0036  0.0000 </r>
        <r>  0.0000  0.0452  0.0018  0.0075  0.0002  0.0010  0.0001  0.0062  0.0001 </r>
        <r>  0.0000  0.0011  0.0029  0.0004  0.0004  0.0001  0.0002  0.0001  0.0009 </r>
        <r>  0.0000  0.0054  0.0055  0.0001  0.0008  0.0000  0.0001  0.0007  0.0034 </r>
        <r>  0.0000  0.1308  0.0110  0.0664  0.0001  0.0007  0.0000  0.0013  0.0000 </r>
        <r>  0.0000  0.0001  0.0078  0.0245  0.0001  0.0003  0.0000  0.0000  0.0002 </r>
        <r>  0.0000  0.0404  0.0076  0.0746  0.0001  0.0008  0.0000  0.0004  0.0000 </r>
        <r>  0.0000  0.0048  0.0032  0.0128  0.0000  0.0001  0.0000  0.0000  0.0003 </r>
       </set>
       <set comment="band 31">
        <r>  0.0000  0.0063  0.0398  0.0034  0.0054  0.0005  0.0008  0.0009  0.0004 </r>
        <r>  0.0000  0.0111  0.0185  0.0157  0.0025  0.0021  0.0018  0.0015  0.0001 </r>
        <r>  0.0000  0.0213  0.0269  0.0220  0.0037  0.0030  0.0001  0.0029  0.0006 </r>
        <r>  0.0000  0.0026  0.0021  0.0001  0.0003  0.0000  0.0012  0.0004  0.0000 </r>
        <r>  0.0000  0.0281  0.0017  0.0012  0.0000  0.0000  0.0000  0.0003  0.0000 </r>
        <r>  0.0000  0.0442  0.1682  0.0048  0.0017  0.0000  0.0000  0.0005  0.0000 </r>
        <r>  0.0000  0.0165  0.0186  0.0587  0.0002  0.0006  0.0000  0.0002  0.0001 </r>
        <r>  0.0000  0.0046  0.0089  0.0286  0.0001  0.0003  0.0004  0.0000  0.0000 </r>
       </set>
       <set comment="band 32">
        <r>  0.0000  0.0068  0.0223  0.0027  0.0031  0.0004  0.0001  0.0009  0.0018 </r>
        <r>  0.0000  0.0031  0.0025  0.0233  0.0003  0.0032  0.0010  0.0004  0.0005 </r>
        <r>  0.0000  0.0404  0.0116  0.0004  0.0016  0.0001  0.0002  0.0055  0.0008 </r>
        <r>  0.0000  0.0290  0.0049  0.0228  0.0007  0.0031  0.0005  0.0040  0.0000 </r>
        <r>  0.0000  0.0162  0.0804  0.0005  0.0008  0.0000  0.0000  0.0002  0.0003 </r>
        <r>  0.0000  0.0671  0.0022  0.0800  0.0000  0.0008  0.0000  0.0007  0.0000 </r>
        <r>  0.0000  0.0066  0.0003  0.0301  0.0000  0.0003  0.0002  0.0001  0.0000 </r>
        <r>  0.0000  0.0896  0.0107  0.0006  0.0001  0.0000  0.0000  0.0009  0.0001 </r>
       </set>
       <set comment="band 33">
        <r>  0.0000  0.0006  0.0216  0.0057  0.0030  0.0008  0.0012  0.0001  0.0001 </r>
        <r>  0.0000  0.0009  0.0269  0.0037  0.0037  0.0005  0.0010  0.0001  0.0019 </r>
        <r>  0.0000  0.0016  0.0112  0.0638  0.0015  0.0087  0.0003  0.0002  0.0000 </r>
        <r>  0.0000  0.0112  0.0073  0.0154  0.0010  0.0021  0.0005  0.0015  0.0000 </r>
        <r>  0.0000  0.0227  0.0621  0.0395  0.0006  0.0004  0.0001  0.0002  0.0001 </r>
        <r>  0.0000  0.0021  0.0246  0.0740  0.0003  0.0008  0.0000  0.0000  0.0001 </r>
        <r>  0.0000  0.0046  0.0476  0.0000  0.0005  0.0000  0.0002  0.0000  0.0001 </r>
        <r>  0.0000  0.0029  0.0172  0.0868  0.0002  0.0009  0.0001  0.0000  0.0000 </r>
       </set>
       <set comment="band 34">
        <r>  0.0000  0.0014  0.0018  0.0001  0.0003  0.0000  0.0005  0.0002  0.0025 </r>
        <r>  0.0000  0.0037  0.0110  0.0028  0.0015  0.0004  0.0001  0.0005  0.0016 </r>
        <r>  0.0000  0.0233  0.0046  0.0202  0.0006  0.0028  0.0000  0.0032  0.0001 </r>
        <r>  0.0000  0.0343  0.0002  0.0664  0.0000  0.0091  0.0002  0.0047  0.0000 </r>
        <r>  0.0000  0.0324  0.0301  0.1125  0.0003  0.0011  0.0000  0.0003  0.0000 </r>
        <r>  0.0000  0.0017  0.0074  0.0017  0.0001  0.0000  0.0000  0.0000  0.0004 </r>
        <r>  0.0000  0.1075  0.0024  0.0707  0.0000  0.0007  0.0001  0.0011  0.0000 </r>
        <r>  0.0000  0.0001  0.0001  0.0175  0.0000  0.0002  0.0000  0.0000  0.0002 </r>
       </set>
       <set comment="band 35">
        <r>  0.0000  0.0077  0.0053  0.0007  0.0007  0.0001  0.0001  0.0011  0.0002 </r>
        <r>  0.0000  0.0086  0.0012  0.0310  0.0002  0.0042  0.0002  0.0012  0.0007 </r>
        <r>  0.0000  0.0048  0.0143  0.0049  0.0020  0.0007  0.0031  0.0006  0.0001 </r>
        <r>  0.0000  0.0205  0.0697  0.0012  0.0095  0.0002  0.0006  0.0028  0.0001 </r>
        <r>  0.0000  0.0035  0.0429  0.0072  0.0004  0.0001  0.0004  0.0000  0.0000 </r>
        <r>  0.0000  0.0006  0.0064  0.0056  0.0001  0.0001  0.0000  0.0000  0.0000 </r>
        <r>  0.0000  0.0027  0.1366  0.0194  0.0014  0.0002  0.0001  0.0000  0.0001 </r>
        <r>  0.0000  0.0871  0.0188  0.0533  0.0002  0.0005  0.0000  0.0009  0.0000 </r>
       </set>
       <set comment="band 36">
        <r>  0.0000  0.0015  0.0022  0.0018  0.0003  0.0002  0.0023  0.0002  0.0000 </r>
        <r>  0.0000  0.0248  0.0512  0.0062  0.0070  0.0009  0.0001  0.0034  0.0000 </r>
        <r>  0.0000  0.0202  0.0400  0.0003  0.0055  0.0000  0.0006  0.0028  0.0000 </r>
        <r>  0.0000  0.0009  0.0137  0.0071  0.0019  0.0010  0.0018  0.0001  0.0002 </r>
        <r>  0.0000  0.0003  0.0052  0.0281  0.0001  0.0003  0.0001  0.0000  0.0000 </r>
        <r>  0.0000  0.0000  0.0011  0.0005  0.0000  0.0000  0.0005  0.0000  0.0000 </r>
        <r>  0.0000  0.0762  0.0389  0.0002  0.0004  0.0000  0.0000  0.0008  0.0000 </r>
        <r>  0.0000  0.0304  0.1970  0.0060  0.0020  0.0001  0.0000  0.0003  0.0000 </r>
       </set>
       <set comment="band 37">
        <r>  0.2944  0.0000  0.0000  0.0000  0.0000  0.0000  0.0000  0.0000  0.0000 </r>
        <r>  0.0001  0.0000  0.0171  0.0000  0.0063  0.0000  0.0000  0.0000  0.0000 </r>
        <r>  0.0001  0.0171  0.0000  0.0000  0.0000  0.0000  0.0000  0.0063  0.0000 </r>
        <r>  0.0003  0.0000  0.0000  0.0171  0.0000  0.0063  0.0000  0.0000  0.0000 </r>
        <r>  0.0382  0.0029  0.0030  0.0037  0.0021  0.0026  0.0000  0.0021  0.0000 </r>
        <r>  0.0437  0.0030  0.0029  0.0032  0.0021  0.0022  0.0000  0.0021  0.0000 </r>
        <r>  0.0362  0.0037  0.0032  0.0029  0.0022  0.0021  0.0000  0.0026  0.0000 </r>
        <r>  0.0352  0.0032  0.0037  0.0030  0.0026  0.0021  0.0000  0.0022  0.0000 </r>
       </set>
       <set comment="band 38">
        <r>  0.0002  0.0037  0.0132  0.0002  0.0048  0.0001  0.0000  0.0014  0.0000 </r>
        <r>  0.2276  0.0002  0.0000  0.0037  0.0000  0.0014  0.0000  0.0001  0.0000 </r>
        <r>  0.0637  0.0000  0.0002  0.0132  0.0001  0.0048  0.0000  0.0000  0.0000 </r>
        <r>  0.0034  0.0132  0.0037  0.0000  0.0014  0.0000  0.0000  0.0048  0.0000 </r>
        <r>  0.0610  0.0003  0.0010  0.0065  0.0007  0.0046  0.0000  0.0002  0.0000 </r>
        <r>  0.0779  0.0010  0.0003  0.0051  0.0002  0.0036  0.0000  0.0007  0.0000 </r>
        <r>  0.0115  0.0065  0.0051  0.0003  0.0036  0.0002  0.0000  0.0046  0.0000 </r>
        <r>  0.0030  0.0051  0.0065  0.0010  0.0046  0.0007  0.0000  0.0036  0.0000 </r>
       </set>
       <set comment="band 39">
        <r>  0.0001  0.0120  0.0039  0.0012  0.0014  0.0004  0.0000  0.0044  0.0000 </r>
        <r>  0.0669  0.0012  0.0000  0.0120  0.0000  0.0044  0.0000  0.0004  0.0000 </r>
        <r>  0.2068  0.0000  0.0012  0.0039  0.0004  0.0014  0.0000  0.0000  0.0000 </r>
        <r>  0.0211  0.0039  0.0120  0.0000  0.0044  0.0000  0.0000  0.0014  0.0000 </r>
        <r>  0.0005  0.0082  0.0034  0.0012  0.0024  0.0008  0.0000  0.0057  0.0000 </r>
        <r>  0.0142  0.0034  0.0082  0.0000  0.0057  0.0000  0.0000  0.0024  0.0000 </r>
        <r>  0.0404  0.0012  0.0000  0.0082  0.0000  0.0057  0.0000  0.0008  0.0000 </r>
        <r>  0.0982  0.0000  0.0012  0.0034  0.0008  0.0024  0.0000  0.0000  0.0000 </r>
       </set>
       <set comment="band 40">
        <r>  0.0002  0.0014  0.0000  0.0157  0.0000  0.0057  0.0000  0.0005  0.0000 </r>
        <r>  0.0003  0.0157  0.0000  0.0014  0.0000  0.0005  0.0000  0.0057  0.0000 </r>
        <r>  0.0243  0.0000  0.0157  0.0000  0.0057  0.0000  0.0000  0.0000  0.0000 </r>
        <r>  0.2700  0.0000  0.0014  0.0000  0.0005  0.0000  0.0000  0.0000  0.0000 </r>
        <r>  0.0536  0.0014  0.0055  0.0015  0.0038  0.0010  0.0000  0.0010  0.0000 </r>
        <r>  0.0175  0.0055  0.0014  0.0045  0.0010  0.0031  0.0000  0.0038  0.0000 </r>
        <r>  0.0653  0.0015  0.0045  0.0014  0.0031  0.0010  0.0000  0.0010  0.0000 </r>
        <r>  0.0169  0.0045  0.0015  0.0055  0.0010  0.0038  0.0000  0.0031  0.0000 </r>
       </set>
       <set comment="band 41">
        <r>  0.0000  0.0048  0.0039  0.1405  0.0004  0.0127  0.0001  0.0004  0.0002 </r>
        <r>  0.0000  0.0370  0.0005  0.0011  0.0000  0.0001  0.0009  0.0033  0.0000 </r>
        <r>  0.0000  0.0001  0.0333  0.0016  0.0030  0.0001  0.0003  0.0000  0.0008 </r>
        <r>  0.0000  0.0005  0.0013  0.0012  0.0001  0.0001  0.0074  0.0000  0.0237 </r>
        <r>  0.0000  0.0012  0.0024  0.0119  0.0014  0.0069  0.0007  0.0007  0.0101 </r>
        <r>  0.0000  0.0035  0.0012  0.0111  0.0007  0.0064  0.0058  0.0021  0.0058 </r>
        <r>  0.0000  0.0009  0.0008  0.0049  0.0005  0.0029  0.0022  0.0005  0.0085 </r>
        <r>  0.0000  0.0060  0.0064  0.0117  0.0037  0.0068  0.0011  0.0035  0.0034 </r>
       </set>
       <set comment="band 42">
        <r>  0.0000  0.0151  0.1276  0.0068  0.0115  0.0006  0.0000  0.0014  0.0001 </r>
        <r>  0.0000  0.0029  0.0002  0.0029  0.0000  0.0003  0.0282  0.0003  0.0001 </r>
        <r>  0.0000  0.0005  0.0008  0.0377  0.0001  0.0034  0.0010  0.0000  0.0023 </r>
        <r>  0.0000  0.0266  0.0047  0.0001  0.0004  0.0000  0.0002  0.0024  0.0014 </r>
        <r>  0.0000  0.0000  0.0042  0.0002  0.0024  0.0001  0.0121  0.0000  0.0000 </r>
        <r>  0.0000  0.0004  0.0075  0.0037  0.0044  0.0021  0.0105  0.0002  0.0020 </r>
        <r>  0.0000  0.0090  0.0133  0.0071  0.0077  0.0041  0.0038  0.0052  0.0002 </r>
        <r>  0.0000  0.0030  0.0116  0.0021  0.0068  0.0012  0.0068  0.0018  0.0020 </r>
       </set>
       <set comment="band 43">
        <r>  0.0000  0.1275  0.0171  0.0017  0.0015  0.0002  0.0000  0.0115  0.0001 </r>
        <r>  0.0000  0.0006  0.0000  0.0494  0.0000  0.0045  0.0038  0.0001  0.0003 </r>
        <r>  0.0000  0.0004  0.0003  0.0091  0.0000  0.0008  0.0040  0.0000  0.0248 </r>
        <r>  0.0000  0.0012  0.0182  0.0002  0.0016  0.0000  0.0001  0.0001  0.0003 </r>
        <r>  0.0000  0.0108  0.0057  0.0096  0.0033  0.0056  0.0000  0.0063  0.0061 </r>
        <r>  0.0000  0.0103  0.0040  0.0047  0.0024  0.0028  0.0000  0.0060  0.0113 </r>
        <r>  0.0000  0.0092  0.0000  0.0016  0.0000  0.0009  0.0052  0.0053  0.0049 </r>
        <r>  0.0000  0.0053  0.0000  0.0007  0.0000  0.0004  0.0037  0.0031  0.0063 </r>
       </set>
       <set comment="band 44">
        <r>  0.0000  0.0000  0.0002  0.0007  0.0000  0.0001  0.0288  0.0000  0.0036 </r>
        <r>  0.0000  0.0034  0.1301  0.0004  0.0118  0.0000  0.0000  0.0003  0.0000 </r>
        <r>  0.0000  0.0048  0.0010  0.0000  0.0001  0.0000  0.0000  0.0004  0.0000 </r>
        <r>  0.0000  0.0001  0.0002  0.0848  0.0000  0.0077  0.0002  0.0000  0.0005 </r>
        <r>  0.0000  0.0000  0.0089  0.0054  0.0052  0.0031  0.0096  0.0000  0.0002 </r>
        <r>  0.0000  0.0000  0.0062  0.0043  0.0036  0.0025  0.0096  0.0000  0.0006 </r>
        <r>  0.0000  0.0009  0.0106  0.0059  0.0061  0.0035  0.0080  0.0005  0.0022 </r>
        <r>  0.0000  0.0014  0.0106  0.0081  0.0061  0.0047  0.0056  0.0008  0.0017 </r>
       </set>
       <set comment="band 45">
        <r>  0.0000  0.0004  0.0002  0.0006  0.0000  0.0001  0.0032  0.0000  0.0289 </r>
        <r>  0.0000  0.0017  0.0143  0.0005  0.0013  0.0000  0.0000  0.0002  0.0001 </r>
        <r>  0.0000  0.1390  0.0044  0.0001  0.0004  0.0000  0.0000  0.0126  0.0001 </r>
        <r>  0.0000  0.0005  0.0000  0.0641  0.0000  0.0058  0.0010  0.0000  0.0000 </r>
        <r>  0.0000  0.0075  0.0003  0.0027  0.0002  0.0016  0.0025  0.0043  0.0107 </r>
        <r>  0.0000  0.0076  0.0001  0.0046  0.0001  0.0027  0.0019  0.0044  0.0067 </r>
        <r>  0.0000  0.0094  0.0027  0.0058  0.0016  0.0034  0.0003  0.0055  0.0074 </r>
        <r>  0.0000  0.0144  0.0021  0.0048  0.0012  0.0028  0.0001  0.0084  0.0080 </r>
       </set>
       <set comment="band 46">
        <r>  0.0000  0.0027  0.0014  0.0001  0.0001  0.0000  0.0002  0.0002  0.0000 </r>
        <r>  0.0000  0.0011  0.0009  0.0639  0.0001  0.0058  0.0003  0.0001  0.0090 </r>
        <r>  0.0000  0.0008  0.0006  0.0244  0.0000  0.0022  0.0205  0.0001  0.0030 </r>
        <r>  0.0000  0.0373  0.0927  0.0000  0.0084  0.0000  0.0001  0.0034  0.0001 </r>
        <r>  0.0000  0.0064  0.0057  0.0108  0.0033  0.0063  0.0047  0.0037  0.0067 </r>
        <r>  0.0000  0.0023  0.0107  0.0122  0.0062  0.0071  0.0042  0.0014  0.0059 </r>
        <r>  0.0000  0.0013  0.0052  0.0006  0.0030  0.0003  0.0051  0.0008  0.0001 </r>
        <r>  0.0000  0.0015  0.0046  0.0007  0.0027  0.0004  0.0097  0.0008  0.0010 </r>
       </set>
       <set comment="band 47">
        <r>  0.0000  0.0000  0.0001  0.0001  0.0000  0.0000  0.0002  0.0000  0.0000 </r>
        <r>  0.0000  0.0189  0.0011  0.0226  0.0001  0.0020  0.0000  0.0017  0.0205 </r>
        <r>  0.0000  0.0006  0.0217  0.0670  0.0020  0.0061  0.0049  0.0001  0.0017 </r>
        <r>  0.0000  0.0717  0.0220  0.0001  0.0020  0.0000  0.0048  0.0065  0.0012 </r>
        <r>  0.0000  0.0008  0.0001  0.0008  0.0001  0.0005  0.0001  0.0005  0.0014 </r>
        <r>  0.0000  0.0127  0.0070  0.0008  0.0041  0.0005  0.0046  0.0074  0.0049 </r>
        <r>  0.0000  0.0099  0.0001  0.0126  0.0001  0.0073  0.0001  0.0058  0.0140 </r>
        <r>  0.0000  0.0016  0.0051  0.0105  0.0030  0.0061  0.0063  0.0009  0.0060 </r>
       </set>
       <set comment="band 48">
        <r>  0.0000  0.0001  0.0001  0.0000  0.0000  0.0000  0.0008  0.0000  0.0004 </r>
        <r>  0.0000  0.0850  0.0034  0.0098  0.0003  0.0009  0.0000  0.0077  0.0034 </r>
        <r>  0.0000  0.0044  0.0885  0.0106  0.0080  0.0010  0.0025  0.0004  0.0006 </r>
        <r>  0.0000  0.0125  0.0114  0.0001  0.0010  0.0000  0.0196  0.0011  0.0060 </r>
        <r>  0.0000  0.0146  0.0141  0.0000  0.0082  0.0000  0.0078  0.0085  0.0023 </r>
        <r>  0.0000  0.0044  0.0046  0.0000  0.0027  0.0000  0.0009  0.0026  0.0002 </r>
        <r>  0.0000  0.0008  0.0087  0.0028  0.0050  0.0017  0.0128  0.0004  0.0001 </r>
        <r>  0.0000  0.0082  0.0010  0.0028  0.0006  0.0016  0.0042  0.0048  0.0092 </r>
       </set>
      </set>
     </set>
    </set>
   </array>
  </projected>
 </calculation>
 <structure name="finalpos" >
  <crystal>
   <varray name="basis" >
    <v>       5.66289303       0.00000000       0.00000000 </v>
    <v>      -0.00000000       5.66289303       0.00000000 </v>
    <v>       0.00000000       0.00000000       5.66289303 </v>
   </varray>
   <i name="volume">    181.59967786 </i>
   <varray name="rec_basis" >
    <v>       0.17658818       0.00000000       0.00000000 </v>
    <v>       0.00000000       0.17658818       0.00000000 </v>
    <v>      -0.00000000      -0.00000000       0.17658818 </v>
   </varray>
  </crystal>
  <varray name="positions" >
   <v>       0.00000000       0.00000000       0.00000000 </v>
   <v>       0.50000000       0.50000000       0.00000000 </v>
   <v>       0.50000000       0.00000000       0.50000000 </v>
   <v>       0.00000000       0.50000000       0.50000000 </v>
   <v>       0.25000000       0.25000000       0.25000000 </v>
   <v>       0.25000000       0.75000000       0.75000000 </v>
   <v>       0.75000000       0.75000000       0.25000000 </v>
   <v>       0.75000000       0.25000000       0.75000000 </v>
  </varray>
 </structure>
</modeling>
