 vasp.6.4.2 20Jul23 (build Mar 15 2024 16:31:38) complex                        
  
 executed on             LinuxIFC date 2025.03.19  13:25:06
 running  120 mpi-ranks, on    3 nodes
 distrk:  each k-point on  120 cores,    1 groups
 distr:  one band on NCORE=  10 cores,   12 groups


--------------------------------------------------------------------------------------------------------


 INCAR:
   ALGO = Normal
   EDIFF = 1e-05
   ENAUG = 1360
   ENCUT = 680
   GGA = Pe
   HFSCREEN = 0.2
   ISMEAR = -5
   ISPIN = 2
   LAECHG = True
   LASPH = True
   LCHARG = True
   LDAU = False
   LELF = False
   LHFCALC = True
   LMAXMIX = 4
   LMIXTAU = True
   LORBIT = 11
   LREAL = False
   LVTOT = True
   LWAVE = True
   MAGMOM = 8*0.6
   NCORE = 10
   NELM = 200
   NSW = 0
   PREC = Accurate
   PRECFOCK = Fast
   SIGMA = 0.2

 POTCAR:    PAW_PBE In_d 06Sep2000                
 POTCAR:    PAW_PBE Cu 22Jun2005                  
 POTCAR:    PAW_PBE Se 06Sep2000                  
 WARNING: For LVTOT=.TRUE., VASP.5.x writes the TOTAL local potential to the
     file LOCPOT. If you want only the Hartree contributions, use LVHAR=.TRUE.
     instead. 

 POTCAR:    PAW_PBE In_d 06Sep2000                
   VRHFIN =In: s2p1                                                                                 
   LEXCH  = PE                                                                                      
   EATOM  =  1576.8302 eV,  115.8937 Ry                                                             
                                                                                                    
   TITEL  = PAW_PBE In_d 06Sep2000                                                                  
   LULTRA =        F    use ultrasoft PP ?                                                          
   IUNSCR =        1    unscreen: 0-lin 1-nonlin 2-no                                               
   RPACOR =    2.200    partial core radius                                                         
   POMASS =  114.820; ZVAL   =   13.000    mass and valenz                                          
   RCORE  =    2.500    outmost cutoff radius                                                       
   RWIGS  =    3.170; RWIGS  =    1.677    wigner-seitz radius (au A)                               
   ENMAX  =  239.211; ENMIN  =  179.409 eV                                                          
   ICORE  =        3    local potential                                                             
   LCOR   =        T    correct aug charges                                                         
   LPAW   =        T    paw PP                                                                      
   EAUG   =  449.704                                                                                
   DEXC   =    0.000                                                                                
   RMAX   =    2.552    core radius for proj-oper                                                   
   RAUG   =    1.300    factor for augmentation sphere                                              
   RDEP   =    2.630    radius for radial grids                                                     
   RDEPT  =    2.033    core radius for aug-charge                                                  
                                                                                                    
   Atomic configuration                                                                             
   12 entries                                                                                       
     n  l   j            E        occ.                                                              
     1  0  0.50    -27747.9169   2.0000                                                             
     2  0  0.50     -4154.4438   2.0000                                                             
     2  1  1.50     -3728.4305   6.0000                                                             
     3  0  0.50      -788.3680   2.0000                                                             
     3  1  1.50      -648.9215   6.0000                                                             
     3  2  2.50      -432.5893  10.0000                                                             
     4  0  0.50      -119.6363   2.0000                                                             
     4  1  1.50       -78.1086   6.0000                                                             
     4  2  2.50       -18.6227  10.0000                                                             
     5  0  0.50        -8.2107   2.0000                                                             
     5  1  0.50        -2.5185   1.0000                                                             
     4  3  2.50        -2.7212   0.0000                                                             
   Description                                                                                      
     l       E           TYP  RCUT    TYP  RCUT                                                     
     2    -18.6226981     23  2.500                                                                 
     2     -1.3605826     23  2.500                                                                 
     0     -8.2107305     23  2.500                                                                 
     0     -6.1485975     23  2.500                                                                 
     1     -2.5184867     23  2.500                                                                 
     1      3.2427302     23  2.500                                                                 
     3     -1.3605826      7  2.500                                                                 
  local pseudopotential read in
  partial core-charges read in
  partial kinetic energy density read in
  atomic valenz-charges read in
  non local Contribution for L=           2  read in
    real space projection operators read in
  non local Contribution for L=           2  read in
    real space projection operators read in
  non local Contribution for L=           0  read in
    real space projection operators read in
  non local Contribution for L=           0  read in
    real space projection operators read in
  non local Contribution for L=           1  read in
    real space projection operators read in
  non local Contribution for L=           1  read in
    real space projection operators read in
    PAW grid and wavefunctions read in
 
   number of l-projection  operators is LMAX  =           6
   number of lm-projection operators is LMMAX =          18
 
 POTCAR:    PAW_PBE Cu 22Jun2005                  
   VRHFIN =Cu: d10 p1                                                                               
   LEXCH  = PE                                                                                      
   EATOM  =  1390.9808 eV,  102.2342 Ry                                                             
                                                                                                    
   TITEL  = PAW_PBE Cu 22Jun2005                                                                    
   LULTRA =        F    use ultrasoft PP ?                                                          
   IUNSCR =        1    unscreen: 0-lin 1-nonlin 2-no                                               
   RPACOR =    2.000    partial core radius                                                         
   POMASS =   63.546; ZVAL   =   11.000    mass and valenz                                          
   RCORE  =    2.300    outmost cutoff radius                                                       
   RWIGS  =    2.200; RWIGS  =    1.164    wigner-seitz radius (au A)                               
   ENMAX  =  295.446; ENMIN  =  221.585 eV                                                          
   ICORE  =        3    local potential                                                             
   LCOR   =        T    correct aug charges                                                         
   LPAW   =        T    paw PP                                                                      
   EAUG   =  586.980                                                                                
   DEXC   =    0.000                                                                                
   RMAX   =    2.344    core radius for proj-oper                                                   
   RAUG   =    1.300    factor for augmentation sphere                                              
   RDEP   =    2.302    radius for radial grids                                                     
   RDEPT  =    1.771    core radius for aug-charge                                                  
                                                                                                    
   Atomic configuration                                                                             
    9 entries                                                                                       
     n  l   j            E        occ.                                                              
     1  0  0.50     -8850.2468   2.0000                                                             
     2  0  0.50     -1062.3498   2.0000                                                             
     2  1  1.50      -916.8226   6.0000                                                             
     3  0  0.50      -114.6929   2.0000                                                             
     3  1  1.50       -72.1325   6.0000                                                             
     3  2  2.50        -5.0394  10.0000                                                             
     4  0  0.50        -4.6097   1.0000                                                             
     4  1  0.50        -4.0817   0.0000                                                             
     4  3  2.50        -1.3606   0.0000                                                             
   Description                                                                                      
     l       E           TYP  RCUT    TYP  RCUT                                                     
     2     -5.0393973     23  2.200                                                                 
     2     10.8846608     23  2.200                                                                 
     0     -4.6097109     23  2.200                                                                 
     0      8.2520465     23  2.200                                                                 
     1     -2.7211652     23  2.200                                                                 
     1     21.7055443     23  2.200                                                                 
     3      2.7211652     23  2.300                                                                 
  local pseudopotential read in
  partial core-charges read in
  partial kinetic energy density read in
  atomic valenz-charges read in
  non local Contribution for L=           2  read in
    real space projection operators read in
  non local Contribution for L=           2  read in
    real space projection operators read in
  non local Contribution for L=           0  read in
    real space projection operators read in
  non local Contribution for L=           0  read in
    real space projection operators read in
  non local Contribution for L=           1  read in
    real space projection operators read in
  non local Contribution for L=           1  read in
    real space projection operators read in
    PAW grid and wavefunctions read in
 
   number of l-projection  operators is LMAX  =           6
   number of lm-projection operators is LMMAX =          18
 
 POTCAR:    PAW_PBE Se 06Sep2000                  
   VRHFIN =Se: s2p4                                                                                 
   LEXCH  = PE                                                                                      
   EATOM  =   257.1286 eV,   18.8984 Ry                                                             
                                                                                                    
   TITEL  = PAW_PBE Se 06Sep2000                                                                    
   LULTRA =        F    use ultrasoft PP ?                                                          
   IUNSCR =        1    unscreen: 0-lin 1-nonlin 2-no                                               
   RPACOR =    1.900    partial core radius                                                         
   POMASS =   78.960; ZVAL   =    6.000    mass and valenz                                          
   RCORE  =    2.100    outmost cutoff radius                                                       
   RWIGS  =    2.200; RWIGS  =    1.164    wigner-seitz radius (au A)                               
   ENMAX  =  211.555; ENMIN  =  158.666 eV                                                          
   ICORE  =        3    local potential                                                             
   LCOR   =        T    correct aug charges                                                         
   LPAW   =        T    paw PP                                                                      
   EAUG   =  446.842                                                                                
   DEXC   =    0.000                                                                                
   RMAX   =    2.147    core radius for proj-oper                                                   
   RAUG   =    1.300    factor for augmentation sphere                                              
   RDEP   =    2.177    radius for radial grids                                                     
   RDEPT  =    1.928    core radius for aug-charge                                                  
                                                                                                    
   Atomic configuration                                                                             
   10 entries                                                                                       
     n  l   j            E        occ.                                                              
     1  0  0.50    -12503.4787   2.0000                                                             
     2  0  0.50     -1606.9547   2.0000                                                             
     2  1  1.50     -1413.3140   6.0000                                                             
     3  0  0.50      -213.4885   2.0000                                                             
     3  1  1.50      -152.9538   6.0000                                                             
     3  2  2.50       -53.1221  10.0000                                                             
     4  0  0.50       -17.2865   2.0000                                                             
     4  1  0.50        -6.5110   4.0000                                                             
     4  2  2.50        -6.8029   0.0000                                                             
     4  3  2.50        -6.8029   0.0000                                                             
   Description                                                                                      
     l       E           TYP  RCUT    TYP  RCUT                                                     
     0    -17.2865377     23  2.100                                                                 
     0    -15.3094411     23  2.100                                                                 
     1     -6.5110275     23  2.100                                                                 
     1     -0.0695192     23  2.100                                                                 
     2     -6.8029130     23  2.100                                                                 
     3     -1.3605826      7  2.100                                                                 
  local pseudopotential read in
  partial core-charges read in
  partial kinetic energy density read in
  atomic valenz-charges read in
  non local Contribution for L=           0  read in
    real space projection operators read in
  non local Contribution for L=           0  read in
    real space projection operators read in
  non local Contribution for L=           1  read in
    real space projection operators read in
  non local Contribution for L=           1  read in
    real space projection operators read in
  non local Contribution for L=           2  read in
    real space projection operators read in
    PAW grid and wavefunctions read in
 
   number of l-projection  operators is LMAX  =           5
   number of lm-projection operators is LMMAX =          13
 
  PAW_PBE In_d 06Sep2000                :
 energy of atom  1       EATOM=-1576.8302
 kinetic energy error for atom=    0.0009 (will be added to EATOM!!)
  PAW_PBE Cu 22Jun2005                  :
 energy of atom  2       EATOM=-1390.9808
 kinetic energy error for atom=    0.0018 (will be added to EATOM!!)
  PAW_PBE Se 06Sep2000                  :
 energy of atom  3       EATOM= -257.1286
 kinetic energy error for atom=    0.0004 (will be added to EATOM!!)
 
 
 POSCAR: In2 Cu2 Se4
  positions in direct lattice
  No initial velocities read in
 exchange correlation table for  LEXCH =        8
   RHO(1)=    0.500       N(1)  =     2000
   RHO(2)=  100.500       N(2)  =     4000
 


--------------------------------------------------------------------------------------------------------


 ion  position               nearest neighbor table
   1  0.500  0.500  0.000-   5 2.62   8 2.62   6 2.62   7 2.62
   2  0.750  0.250  0.500-   8 2.62   6 2.62   7 2.62   5 2.62
   3  0.000  0.000  0.000-   6 2.42   7 2.42   5 2.42   8 2.42
   4  0.250  0.750  0.500-   7 2.42   5 2.42   8 2.42   6 2.42
   5  0.345  0.375  0.250-   4 2.42   3 2.42   1 2.62   2 2.62
   6  0.905  0.875  0.250-   3 2.42   4 2.42   2 2.62   1 2.62
   7  0.125  0.655  0.750-   4 2.42   3 2.42   2 2.62   1 2.62
   8  0.625  0.095  0.750-   4 2.42   3 2.42   2 2.62   1 2.62
 
  LATTYP: Found a body centered tetragonal cell.
 ALAT       =     5.8059957800
 C/A-ratio  =     2.0079361830
  
  Lattice vectors:
  
 A1 = (   1.0538795677,  -5.1971421792,  -4.7656568808)
 A2 = (  -5.3029191999,   0.0000000000,  -4.7656572101)
 A3 = (   4.2490396322,   5.1971421792,   2.4016274909)


Analysis of symmetry for initial positions (statically):
=====================================================================
 Subroutine PRICEL returns:
 Original cell was already a primitive cell.
 

 Routine SETGRP: Setting up the symmetry group for a 
 body centered tetragonal supercell.


 Subroutine GETGRP returns: Found  8 space group operations
 (whereof  4 operations were pure point group operations)
 out of a pool of 16 trial point group operations.


The static configuration has the point symmetry S_4 .
 The point group associated with its full space group is D_2d.


Analysis of symmetry for dynamics (positions and initial velocities):
=====================================================================
 Subroutine PRICEL returns:
 Original cell was already a primitive cell.
 

 Routine SETGRP: Setting up the symmetry group for a 
 body centered tetragonal supercell.


 Subroutine GETGRP returns: Found  8 space group operations
 (whereof  4 operations were pure point group operations)
 out of a pool of 16 trial point group operations.


The dynamic configuration has the point symmetry S_4 .
 The point group associated with its full space group is D_2d.


Analysis of structural, dynamic, and magnetic symmetry:
=====================================================================
 Subroutine PRICEL returns:
 Original cell was already a primitive cell.
 

 Routine SETGRP: Setting up the symmetry group for a 
 body centered tetragonal supercell.


 Subroutine GETGRP returns: Found  8 space group operations
 (whereof  4 operations were pure point group operations)
 out of a pool of 16 trial point group operations.


The overall configuration has the point symmetry S_4 .
 The point group associated with its full space group is D_2d.


 Subroutine INISYM returns: Found  8 space group operations
 (whereof  4 operations are pure point group operations),
 and found     1 'primitive' translations


----------------------------------------------------------------------------------------

                                     Primitive cell                                     

  volume of cell :     196.4943

  direct lattice vectors                    reciprocal lattice vectors
     5.302919200  0.000000000 -2.364029390     0.188575379  0.038239427  0.000000000
    -1.053879568  5.197142179 -2.364029719     0.000000000  0.192413439  0.000000000
     0.000000000  0.000000000  7.129686600     0.062526975  0.076478848  0.140258620

  length of vectors
     5.805995780  5.805995650  7.129686600     0.192413429  0.192413439  0.171554998

  position of ions in fractional coordinates (direct lattice)
     0.500000000  0.500000000  1.000000000
     0.750000000  0.250000000  0.500000000
     0.000000000  0.000000000  0.000000000
     0.250000000  0.750000000  0.500000000
     0.345161030  0.375000000  0.250000000
     0.904838970  0.875000000  0.250000000
     0.125000000  0.654838970  0.750000000
     0.625000000  0.095161030  0.750000000

  ion indices of the primitive-cell ions
   primitive index   ion index
                 1           1
                 2           2
                 3           3
                 4           4
                 5           5
                 6           6
                 7           7
                 8           8

----------------------------------------------------------------------------------------

 
 
 KPOINTS: pymatgen with grid density = 646 / numbe

Automatic generation of k-mesh.
 Grid dimensions read from file:
 generate k-points for:    4    4    3

 Generating k-lattice:

  Cartesian coordinates                     Fractional coordinates (reciprocal lattice)
     0.047143845  0.009559857  0.000000000     0.250000000 -0.000000000  0.000000000
     0.000000000  0.048103360  0.000000000     0.000000000  0.250000000  0.000000000
     0.020842325  0.025492949  0.046752873     0.000000000 -0.000000000  0.333333333

  Length of vectors
     0.048103357  0.048103360  0.057184999

  Shift w.r.t. Gamma in fractional coordinates (k-lattice)
     0.000000000  0.000000000  0.000000000

 -----------------------------------------------------------------------------
|                                                                             |
|           W    W    AA    RRRRR   N    N  II  N    N   GGGG   !!!           |
|           W    W   A  A   R    R  NN   N  II  NN   N  G    G  !!!           |
|           W    W  A    A  R    R  N N  N  II  N N  N  G       !!!           |
|           W WW W  AAAAAA  RRRRR   N  N N  II  N  N N  G  GGG   !            |
|           WW  WW  A    A  R   R   N   NN  II  N   NN  G    G                |
|           W    W  A    A  R    R  N    N  II  N    N   GGGG   !!!           |
|                                                                             |
|     Your reciprocal lattice and k-lattice belong to different lattice       |
|     classes:                                                                |
|                                                                             |
|        The reciprocal lattice is body-centered tetragonal,                  |
|        whereas your k-lattice is base-centered monoclinic.                  |
|                                                                             |
|     Results are often still useful ...                                      |
|                                                                             |
 -----------------------------------------------------------------------------

 WARNING: IBZKPT: internal override: KBLOWUP is changed to .FALSE.
      ... skipping the blow-up phase ...

 TETIRR: Found     74 inequivalent tetrahedra from      288
 
 Subroutine IBZKPT returns following result:
 ===========================================
 
 Found     17 irreducible k-points:
 
 Following reciprocal coordinates:
            Coordinates               Weight
  0.000000  0.000000  0.000000      1.000000
  0.250000 -0.000000  0.000000      4.000000
  0.500000 -0.000000  0.000000      2.000000
  0.250000  0.250000  0.000000      2.000000
  0.500000  0.250000  0.000000      4.000000
 -0.250000  0.250000  0.000000      2.000000
  0.500000  0.500000  0.000000      1.000000
  0.000000  0.000000  0.333333      2.000000
  0.250000 -0.000000  0.333333      4.000000
  0.500000  0.000000  0.333333      4.000000
 -0.250000  0.000000  0.333333      4.000000
  0.250000  0.250000  0.333333      2.000000
  0.500000  0.250000  0.333333      4.000000
 -0.250000  0.250000  0.333333      4.000000
  0.500000  0.500000  0.333333      2.000000
 -0.250000  0.500000  0.333333      4.000000
 -0.250000 -0.250000  0.333333      2.000000
 
 Following cartesian coordinates:
            Coordinates               Weight
  0.000000  0.000000  0.000000      1.000000
  0.047144  0.009560  0.000000      4.000000
  0.094288  0.019120  0.000000      2.000000
  0.047144  0.057663  0.000000      2.000000
  0.094288  0.067223  0.000000      4.000000
 -0.047144  0.038544  0.000000      2.000000
  0.094288  0.115326  0.000000      1.000000
  0.020842  0.025493  0.046753      2.000000
  0.067986  0.035053  0.046753      4.000000
  0.115130  0.044613  0.046753      4.000000
 -0.026302  0.015933  0.046753      4.000000
  0.067986  0.083156  0.046753      2.000000
  0.115130  0.092716  0.046753      4.000000
 -0.026302  0.064036  0.046753      4.000000
  0.115130  0.140819  0.046753      2.000000
 -0.026302  0.112140  0.046753      4.000000
 -0.026302 -0.032170  0.046753      2.000000
 
 WARNING: full set of k-points will be restricted to regular points only.

 
 Subroutine IBZKPT_HF returns following result:
 ==============================================
 
 Found     48 k-points in 1st BZ
 the following     48 k-points will be used (e.g. in the exchange kernel)
 Following reciprocal coordinates:   # in IRBZ
  0.000000  0.000000  0.000000    0.02083333   1 t-inv F
  0.250000 -0.000000  0.000000    0.02083333   2 t-inv F
  0.500000 -0.000000  0.000000    0.02083333   3 t-inv F
  0.250000  0.250000  0.000000    0.02083333   4 t-inv F
  0.500000  0.250000  0.000000    0.02083333   5 t-inv F
 -0.250000  0.250000  0.000000    0.02083333   6 t-inv F
  0.500000  0.500000  0.000000    0.02083333   7 t-inv F
  0.000000  0.000000  0.333333    0.02083333   8 t-inv F
  0.250000 -0.000000  0.333333    0.02083333   9 t-inv F
  0.500000  0.000000  0.333333    0.02083333  10 t-inv F
 -0.250000  0.000000  0.333333    0.02083333  11 t-inv F
  0.250000  0.250000  0.333333    0.02083333  12 t-inv F
  0.500000  0.250000  0.333333    0.02083333  13 t-inv F
 -0.250000  0.250000  0.333333    0.02083333  14 t-inv F
  0.500000  0.500000  0.333333    0.02083333  15 t-inv F
 -0.250000  0.500000  0.333333    0.02083333  16 t-inv F
 -0.250000 -0.250000  0.333333    0.02083333  17 t-inv F
 -0.000000 -0.250000  0.000000    0.02083333   2 t-inv F
 -0.250000 -0.000000  0.000000    0.02083333   2 t-inv F
 -0.000000  0.250000  0.000000    0.02083333   2 t-inv F
 -0.000000 -0.500000  0.000000    0.02083333   3 t-inv F
  0.250000  0.500000  0.000000    0.02083333   5 t-inv F
  0.250000 -0.250000  0.000000    0.02083333   6 t-inv F
 -0.000000  0.000000 -0.333333    0.02083333   8 t-inv F
 -0.000000 -0.250000 -0.333333    0.02083333   9 t-inv F
 -0.250000 -0.000000 -0.333333    0.02083333   9 t-inv F
 -0.000000  0.250000  0.333333    0.02083333   9 t-inv F
  0.000000 -0.500000 -0.333333    0.02083333  10 t-inv F
 -0.500000  0.000000 -0.333333    0.02083333  10 t-inv F
  0.000000  0.500000  0.333333    0.02083333  10 t-inv F
  0.000000  0.250000 -0.333333    0.02083333  11 t-inv F
  0.250000  0.000000 -0.333333    0.02083333  11 t-inv F
  0.000000 -0.250000  0.333333    0.02083333  11 t-inv F
  0.250000  0.500000  0.333333    0.02083333  13 t-inv F
  0.250000 -0.250000  0.333333    0.02083333  14 t-inv F
  0.500000 -0.250000  0.333333    0.02083333  16 t-inv F
 -0.250000 -0.250000  0.000000    0.02083333   4 t-inv T
 -0.500000 -0.250000  0.000000    0.02083333   5 t-inv T
 -0.250000 -0.500000  0.000000    0.02083333   5 t-inv T
 -0.250000 -0.250000 -0.333333    0.02083333  12 t-inv T
 -0.500000 -0.250000 -0.333333    0.02083333  13 t-inv T
 -0.250000 -0.500000 -0.333333    0.02083333  13 t-inv T
  0.250000 -0.250000 -0.333333    0.02083333  14 t-inv T
 -0.250000  0.250000 -0.333333    0.02083333  14 t-inv T
 -0.500000 -0.500000 -0.333333    0.02083333  15 t-inv T
  0.250000 -0.500000 -0.333333    0.02083333  16 t-inv T
 -0.500000  0.250000 -0.333333    0.02083333  16 t-inv T
  0.250000  0.250000 -0.333333    0.02083333  17 t-inv T


--------------------------------------------------------------------------------------------------------




 Dimension of arrays:
   k-points           NKPTS =     17   k-points in BZ     NKDIM =     48   number of bands    NBANDS=     48
   number of dos      NEDOS =    301   number of ions     NIONS =      8
   non local maximal  LDIM  =      6   non local SUM 2l+1 LMDIM =     18
   total plane-waves  NPLWV = 160000
   max r-space proj   IRMAX =      1   max aug-charges    IRDMAX=  35706
   dimension x,y,z NGX =    50 NGY =   50 NGZ =   64
   dimension x,y,z NGXF=   100 NGYF=  100 NGZF=  128
   support grid    NGXF=   100 NGYF=  100 NGZF=  128
   ions per type =               2   2   4
   NGX,Y,Z   is equivalent  to a cutoff of  14.32, 14.32, 14.92 a.u.
   NGXF,Y,Z  is equivalent  to a cutoff of  28.63, 28.63, 29.85 a.u.

 SYSTEM =  unknown system                          
 POSCAR =  In2 Cu2 Se4                             

 Startparameter for this run:
   NWRITE =      2    write-flag & timer
   PREC   = accura    normal or accurate (medium, high low for compatibility)
   ISTART =      0    job   : 0-new  1-cont  2-samecut
   ICHARG =      2    charge: 1-file 2-atom 10-const
   ISPIN  =      2    spin polarized calculation?
   LNONCOLLINEAR =      F non collinear calculations
   LSORBIT =      F    spin-orbit coupling
   INIWAV =      1    electr: 0-lowe 1-rand  2-diag
   LASPH  =      T    aspherical Exc in radial PAW
 Electronic Relaxation 1
   ENCUT  =  680.0 eV  49.98 Ry    7.07 a.u.  12.34 12.34 15.16*2*pi/ulx,y,z
   ENINI  =  680.0     initial cutoff
   ENAUG  = 1360.0 eV  augmentation charge cutoff
   NELM   =    200;   NELMIN=  2; NELMDL= -5     # of ELM steps 
   EDIFF  = 0.1E-04   stopping-criterion for ELM
   LREAL  =      F    real-space projection
   NLSPLINE    = F    spline interpolate recip. space projectors
   LCOMPAT=      F    compatible to vasp.4.4
   GGA_COMPAT  = T    GGA compatible to vasp.4.4-vasp.4.6
   LMAXPAW     = -100 max onsite density
   LMAXMIX     =    4 max onsite mixed and CHGCAR
   VOSKOWN=      0    Vosko Wilk Nusair interpolation
   ROPT   =    0.00000   0.00000   0.00000
 Ionic relaxation
   EDIFFG = 0.1E-03   stopping-criterion for IOM
   NSW    =      0    number of steps for IOM
   NBLOCK =      1;   KBLOCK =      1    inner block; outer block 
   IBRION =     -1    ionic relax: 0-MD 1-quasi-New 2-CG
   NFREE  =      0    steps in history (QN), initial steepest desc. (CG)
   ISIF   =      0    stress and relaxation
   IWAVPR =     10    prediction:  0-non 1-charg 2-wave 3-comb
   ISYM   =      3    0-nonsym 1-usesym 2-fastsym
   LCORR  =      T    Harris-Foulkes like correction to forces

   POTIM  = 0.5000    time-step for ionic-motion
   TEIN   =    0.0    initial temperature
   TEBEG  =    0.0;   TEEND  =   0.0 temperature during run
   SMASS  =  -3.00    Nose mass-parameter (am)
   estimated Nose-frequenzy (Omega)   =  0.10E-29 period in steps = 0.13E+47 mass=  -0.770E-27a.u.
   SCALEE = 1.0000    scale energy and forces
   NPACO  =    256;   APACO  = 10.0  distance and # of slots for P.C.
   PSTRESS=    0.0 pullay stress

  Mass of Ions in am
   POMASS = 114.82 63.55 78.96
  Ionic Valenz
   ZVAL   =  13.00 11.00  6.00
  Atomic Wigner-Seitz radii
   RWIGS  =  -1.00 -1.00 -1.00
  virtual crystal weights 
   VCA    =   1.00  1.00  1.00
   NELECT =      72.0000    total number of electrons
   NUPDOWN=      -1.0000    fix difference up-down

 DOS related values:
   EMIN   =  10.00;   EMAX   =-10.00  energy-range for DOS
   EFERMI =   0.00;   METHOD = LEGACY      
   ISMEAR =    -5;   SIGMA  =   0.20  broadening in eV -4-tet -1-fermi 0-gaus

 Electronic relaxation 2 (details)
   IALGO  =     38    algorithm
   LDIAG  =      T    sub-space diagonalisation (order eigenvalues)
   LSUBROT=      F    optimize rotation matrix (better conditioning)
   TURBO    =      0    0=normal 1=particle mesh
   IRESTART =      0    0=no restart 2=restart with 2 vectors
   NREBOOT  =      0    no. of reboots
   NMIN     =      0    reboot dimension
   EREF     =   0.00    reference energy to select bands
   IMIX   =      1    mixing-type and parameters
     AMIX     =   0.40;   BMIX     =  1.00
     AMIX_MAG =   1.60;   BMIX_MAG =  1.00
     AMIN     =   0.10
     WC   =   100.;   INIMIX=   1;  MIXPRE=   1;  MAXMIX= -45

 Intra band minimization:
   WEIMIN = 0.0000     energy-eigenvalue tresh-hold
   EBREAK =  0.52E-07  absolut break condition
   DEPER  =   0.30     relativ break condition  

   TIME   =   0.40     timestep for ELM

  volume/ion in A,a.u.               =      24.56       165.75
  Fermi-wavevector in a.u.,A,eV,Ry     =   1.171482  2.213780 18.672231  1.372370
  Thomas-Fermi vector in A             =   2.307925
 
 Write flags
   LWAVE        =      T    write WAVECAR
   LDOWNSAMPLE  =      F    k-point downsampling of WAVECAR
   LCHARG       =      T    write CHGCAR
   LVTOT        =      T    write LOCPOT, total local potential
   LVHAR        =      F    write LOCPOT, Hartree potential only
   LELF         =      F    write electronic localiz. function (ELF)
   LORBIT       =     11    0 simple, 1 ext, 2 COOP (PROOUT), +10 PAW based schemes


 Dipole corrections
   LMONO  =      F    monopole corrections only (constant potential shift)
   LDIPOL =      F    correct potential (dipole corrections)
   IDIPOL =      0    1-x, 2-y, 3-z, 4-all directions 
   EPSILON=  1.0000000 bulk dielectric constant

 Exchange correlation treatment:
   GGA     =    PE    GGA type
   LEXCH   =     8    internal setting for exchange type
   LIBXC   =     F    Libxc                    
   VOSKOWN =     0    Vosko Wilk Nusair interpolation
   EXXOEP  =     0    0=HF, 1=EXX-LHF (local Hartree Fock) 2=EXX OEP
   LHFCALC =     T    Hartree Fock is set to
   LSYMGRAD=     F    symmetrize gradient (conserves proper symmetry)
   PRECFOCK=fast      Normal, Fast or Accurate (Low or Medium for compatibility)
   LRHFCALC=     F    long range Hartree Fock
   LRSCOR  =     F    long range correlation only (use DFT for short range part)
   LTHOMAS =     F    Thomas Fermi screening in HF
   LMODELHF=     F    short range full HF, long range fraction AEXX
   FOCKCORR=     1    mode to apply convergence corrections
   LFOCKACE=     T    use Adeptively-Compressed-Exchange operator
   ENCUT4O =  -1.0   cutoff for four orbital integrals eV
   LMAXFOCK=     4    L truncation for augmentation on plane wave grid
   LMAXFOCKAE=  -1    L truncation for all-electron charge restoration on plane wave grid
   NMAXFOCKAE=   1    number of basis functions for all-electron charge restoration
   LFOCKAEDFT=     F  apply the AE augmentation even for DFT
   NKREDX  =     1    reduce k-point grid by
   NKREDY  =     1    reduce k-point grid by
   NKREDZ  =     1    reduce k-point grid by
   SHIFTRED=     F    shift reduced grid of Gamma
   HFKIDENT=     F    idential grid for each k-point
   ODDONLY =     F    use only odd q-grid points
   EVENONLY=     F    use only even q-grid points
   HFALPHA =   -1.0000 decay constant for conv. correction
   MCALPHA =    0.0000 extent of test-charge in conv. correction in multipole expansion
   AEXX    =    0.2500 exact exchange contribution
   HFSCREEN=    0.2000 screening length (either q_TF or 0.3 A-1)
   HFSCREENC=   0.2000 screening length for correlation (either q_TF or 0.3 A-1)
   HFRCUT  =    0.0000 spherical cutoff for potential kernel
   ALDAX   =    0.7500 LDA exchange part
   AGGAX   =    0.7500 GGA exchange part
   ALDAC   =    1.0000 LDA correlation
   AGGAC   =    1.0000 GGA correlation
   ENCUTFOCK=  -1.0 apply spherical cutoff to Coloumb kernel
   NBANDSGWLOW=     1    first orbital included in HF term
   NBLOCK_FOCK=    64    blocking factor in FOCK_ACC

 Linear response parameters
   LEPSILON=     F    determine dielectric tensor
   LRPA    =     F    only Hartree local field effects (RPA)
   LNABLA  =     F    use nabla operator in PAW spheres
   LVEL    =     F    velocity operator in full k-point grid
   CSHIFT  =0.1000    complex shift for real part using Kramers Kronig
   OMEGAMAX=  -1.0    maximum frequency
   DEG_THRESHOLD= 0.2000000E-02 threshold for treating states as degnerate
   RTIME   =   -0.100 relaxation time in fs
  (WPLASMAI=    0.000 imaginary part of plasma frequency in eV, 0.658/RTIME)
   DFIELD  = 0.0000000 0.0000000 0.0000000 field for delta impulse in time
 
  Optional k-point grid parameters
   LKPOINTS_OPT  =     F    use optional k-point grid
   KPOINTS_OPT_MODE=     1    mode for optional k-point grid
 
 Orbital magnetization related:
   ORBITALMAG=     F  switch on orbital magnetization
   LCHIMAG   =     F  perturbation theory with respect to B field
   DQ        =  0.001000  dq finite difference perturbation B field
   LLRAUG    =     F  two centre corrections for induced B field
   LBONE     =     F  B-component reconstruction in AE one-centre
   LVGVCALC  =     T  calculate vGv susceptibility
   LVGVAPPL  =     F  apply vGv susceptibility instead of pGv for G=0

 Random number generation:
   RANDOM_GENERATOR = DEFAULT
   PCG_SEED         = not used


--------------------------------------------------------------------------------------------------------


 Static calculation
 charge density and potential will be updated during run
 spin polarized calculation
 Variant of blocked Davidson
 Davidson routine will perform the subspace rotation
 perform sub-space diagonalisation
    after iterative eigenvector-optimisation
 Kerker-like  mixing scheme
 using additional bands           12
 reciprocal scheme for non local part
 use partial core corrections
 calculate Harris-corrections to forces 
   (improved forces if not selfconsistent)
 use gradient corrections 
 use of overlap-Matrix (Vanderbilt PP)
 Fermi weights with tetrahedron method with Bloechl corrections


--------------------------------------------------------------------------------------------------------


  energy-cutoff  :      680.00
  volume of cell :      196.49
      direct lattice vectors                 reciprocal lattice vectors
     5.302919200  0.000000000 -2.364029390     0.188575379  0.038239427  0.000000000
    -1.053879568  5.197142179 -2.364029719     0.000000000  0.192413439  0.000000000
     0.000000000  0.000000000  7.129686600     0.062526975  0.076478848  0.140258620

  length of vectors
     5.805995780  5.805995650  7.129686600     0.192413429  0.192413439  0.171554998


 
 k-points in units of 2pi/SCALE and weight: pymatgen with grid density = 646 / numbe
   0.00000000  0.00000000  0.00000000       0.021
   0.04714384  0.00955986  0.00000000       0.083
   0.09428769  0.01911971  0.00000000       0.042
   0.04714384  0.05766322  0.00000000       0.042
   0.09428769  0.06722307  0.00000000       0.083
  -0.04714384  0.03854350  0.00000000       0.042
   0.09428769  0.11532643  0.00000000       0.021
   0.02084233  0.02549295  0.04675287       0.042
   0.06798617  0.03505281  0.04675287       0.083
   0.11513001  0.04461266  0.04675287       0.083
  -0.02630152  0.01593309  0.04675287       0.083
   0.06798617  0.08315617  0.04675287       0.042
   0.11513001  0.09271602  0.04675287       0.083
  -0.02630152  0.06403645  0.04675287       0.083
   0.11513001  0.14081938  0.04675287       0.042
  -0.02630152  0.11213981  0.04675287       0.083
  -0.02630152 -0.03217027  0.04675287       0.042
 
 k-points in reciprocal lattice and weights: pymatgen with grid density = 646 / numbe
   0.00000000  0.00000000  0.00000000       0.021
   0.25000000 -0.00000000  0.00000000       0.083
   0.50000000 -0.00000000  0.00000000       0.042
   0.25000000  0.25000000  0.00000000       0.042
   0.50000000  0.25000000  0.00000000       0.083
  -0.25000000  0.25000000  0.00000000       0.042
   0.50000000  0.50000000  0.00000000       0.021
   0.00000000  0.00000000  0.33333333       0.042
   0.25000000 -0.00000000  0.33333333       0.083
   0.50000000  0.00000000  0.33333333       0.083
  -0.25000000  0.00000000  0.33333333       0.083
   0.25000000  0.25000000  0.33333333       0.042
   0.50000000  0.25000000  0.33333333       0.083
  -0.25000000  0.25000000  0.33333333       0.083
   0.50000000  0.50000000  0.33333333       0.042
  -0.25000000  0.50000000  0.33333333       0.083
  -0.25000000 -0.25000000  0.33333333       0.042
 
 position of ions in fractional coordinates (direct lattice) 
   0.50000000  0.50000000  0.00000000
   0.75000000  0.25000000  0.50000000
   0.00000000  0.00000000  0.00000000
   0.25000000  0.75000000  0.50000000
   0.34516103  0.37500000  0.25000000
   0.90483897  0.87500000  0.25000000
   0.12500000  0.65483897  0.75000000
   0.62500000  0.09516103  0.75000000
 
 position of ions in cartesian coordinates  (Angst):
   2.12451982  2.59857109 -2.36402955
   3.71371951  1.29928554  1.20081383
   0.00000000  0.00000000  0.00000000
   0.53532012  3.89785663  1.20081366
   1.43515622  1.94892832  0.07993969
   3.87614333  4.54749941 -2.42517027
  -0.02725651  3.40329123  3.50370249
   3.21403623  0.49456540  3.64478308
 


--------------------------------------------------------------------------------------------------------


 k-point   1 :   0.0000 0.0000 0.0000  plane waves:    7897
 k-point   2 :   0.2500-0.0000 0.0000  plane waves:    7921
 k-point   3 :   0.5000-0.0000 0.0000  plane waves:    7912
 k-point   4 :   0.2500 0.2500 0.0000  plane waves:    7920
 k-point   5 :   0.5000 0.2500 0.0000  plane waves:    7913
 k-point   6 :  -0.2500 0.2500 0.0000  plane waves:    7905
 k-point   7 :   0.5000 0.5000 0.0000  plane waves:    7874
 k-point   8 :   0.0000 0.0000 0.3333  plane waves:    7945
 k-point   9 :   0.2500-0.0000 0.3333  plane waves:    7912
 k-point  10 :   0.5000 0.0000 0.3333  plane waves:    7911
 k-point  11 :  -0.2500 0.0000 0.3333  plane waves:    7916
 k-point  12 :   0.2500 0.2500 0.3333  plane waves:    7905
 k-point  13 :   0.5000 0.2500 0.3333  plane waves:    7923
 k-point  14 :  -0.2500 0.2500 0.3333  plane waves:    7915
 k-point  15 :   0.5000 0.5000 0.3333  plane waves:    7894
 k-point  16 :  -0.2500 0.5000 0.3333  plane waves:    7900
 k-point  17 :  -0.2500-0.2500 0.3333  plane waves:    7909

 maximum and minimum number of plane-waves per node :       819      767

 maximum number of plane-waves:      7945
 maximum index in each direction: 
   IXMAX=   12   IYMAX=   12   IZMAX=   15
   IXMIN=  -12   IYMIN=  -12   IZMIN=  -15


 parallel 3D FFT for wavefunctions:
    minimum data exchange during FFTs selected (reduces bandwidth)
 parallel 3D FFT for charge:
    minimum data exchange during FFTs selected (reduces bandwidth)


 FFT grid for exact exchange (Hartree Fock) 
  NGX = 28; NGY = 28; NGZ = 32

 
 Radii for the augmentation spheres in the non-local exchange
 for species   1 augmentation radius   1.454 (default was   1.077)
       energy cutoff for augmentation   2720.0
 for species   2 augmentation radius   1.273 (default was   0.943)
       energy cutoff for augmentation   2720.0
 for species   3 augmentation radius   1.459 (default was   1.081)
       energy cutoff for augmentation   2720.0

 real space projection operators:
  total allocation   :       2359.38 KBytes
  max/ min on nodes  :        256.64        168.75

 Maximum index for augmentation-charges in exchange          223
  SETUP_FOCK is finished

 total amount of memory used by VASP MPI-rank0    42312. kBytes
=======================================================================

   base      :      30000. kBytes
   nonl-proj :       6276. kBytes
   fftplans  :       1091. kBytes
   grid      :       2428. kBytes
   one-center:         31. kBytes
   HF        :         64. kBytes
   nonlr-proj:        542. kBytes
   wavefun   :       1880. kBytes
 
     INWAV:  cpu time      0.0000: real time      0.0001
 initial charge density was supplied:
 charge density of overlapping atoms calculated
 number of electron      72.0000000 magnetization       4.8000000
 keeping initial charge density in first step


--------------------------------------------------------------------------------------------------------


 Maximum index for augmentation-charges          985 (set IRDMAX)


--------------------------------------------------------------------------------------------------------


 First call to EWALD:  gamma=   0.305
 Maximum number of real-space cells 3x 3x 3
 Maximum number of reciprocal cells 3x 3x 3

    FEWALD:  cpu time      0.0033: real time      0.0034


--------------------------------------- Ionic step        1  -------------------------------------------




--------------------------------------- Iteration      1(   1)  ---------------------------------------


    POTLOK:  cpu time      0.0488: real time      0.0762
    SETDIJ:  cpu time      0.4121: real time      0.4133
     EDDAV:  cpu time      0.7174: real time      0.7407
 BZINTS: Fermi energy:   18.199439;   72.000000 electrons
         Band energy: 0.381021E+03;  BLOECHL correction:   -0.182635
       DOS:  cpu time      0.0127: real time      0.0128
    --------------------------------------------
      LOOP:  cpu time      1.1910: real time      1.2430

 eigenvalue-minimisations  :  3264
 total energy-change (2. order) :-0.4382723E+04  (-0.3814780E+04)
 number of electron      72.0000000 magnetization       4.8000000
 augmentation part       72.0000000 magnetization       4.8000000

 Free energy of the ion-electron system (eV)
  ---------------------------------------------------
  alpha Z        PSCENC =       185.64929911
  Ewald energy   TEWEN  =     -4678.36476469
  -Hartree energ DENC   =     -2345.03363423
  -exchange      EXHF   =         0.00000000
  -V(xc)+E(xc)   XCENC  =       172.18262993
  PAW double counting   =      6059.25548889   -11108.38758097
  entropy T*S    EENTRO =         0.00000000
  eigenvalues    EBANDS =       381.02051423
  atomic energy  EATOM  =      6950.95472638
  Solvation  Ediel_sol  =         0.00000000
  ---------------------------------------------------
  free energy    TOTEN  =     -4382.72332135 eV

  energy without entropy =    -4382.72332135  energy(sigma->0) =    -4382.72332135
  exchange ACFDT corr.  =         0.00000000  see jH, gK, PRB 81, 115126


--------------------------------------------------------------------------------------------------------




--------------------------------------- Iteration      1(   2)  ---------------------------------------


     EDDAV:  cpu time      0.6583: real time      0.6697
 BZINTS: Fermi energy:    6.305627;   72.000000 electrons
         Band energy:-0.264891E+03;  BLOECHL correction:   -0.008490
       DOS:  cpu time      0.0086: real time      0.0087
    --------------------------------------------
      LOOP:  cpu time      0.6670: real time      0.6783

 eigenvalue-minimisations  :  3264
 total energy-change (2. order) :-0.6459113E+03  (-0.6155746E+03)
 number of electron      72.0000000 magnetization       4.8000000
 augmentation part       72.0000000 magnetization       4.8000000

 Free energy of the ion-electron system (eV)
  ---------------------------------------------------
  alpha Z        PSCENC =       185.64929911
  Ewald energy   TEWEN  =     -4678.36476469
  -Hartree energ DENC   =     -2345.03363423
  -exchange      EXHF   =         0.00000000
  -V(xc)+E(xc)   XCENC  =       172.18262993
  PAW double counting   =      6059.25548889   -11108.38758097
  entropy T*S    EENTRO =         0.00000000
  eigenvalues    EBANDS =      -264.89074358
  atomic energy  EATOM  =      6950.95472638
  Solvation  Ediel_sol  =         0.00000000
  ---------------------------------------------------
  free energy    TOTEN  =     -5028.63457916 eV

  energy without entropy =    -5028.63457916  energy(sigma->0) =    -5028.63457916
  exchange ACFDT corr.  =         0.00000000  see jH, gK, PRB 81, 115126


--------------------------------------------------------------------------------------------------------




--------------------------------------- Iteration      1(   3)  ---------------------------------------


     EDDAV:  cpu time      0.8153: real time      0.8328
 BZINTS: Fermi energy:    2.728177;   72.000000 electrons
         Band energy:-0.366534E+03;  BLOECHL correction:    0.000000
       DOS:  cpu time      0.0039: real time      0.0040
    --------------------------------------------
      LOOP:  cpu time      0.8193: real time      0.8368

 eigenvalue-minimisations  :  4308
 total energy-change (2. order) :-0.1016436E+03  (-0.9913995E+02)
 number of electron      72.0000000 magnetization       4.8000000
 augmentation part       72.0000000 magnetization       4.8000000

 Free energy of the ion-electron system (eV)
  ---------------------------------------------------
  alpha Z        PSCENC =       185.64929911
  Ewald energy   TEWEN  =     -4678.36476469
  -Hartree energ DENC   =     -2345.03363423
  -exchange      EXHF   =         0.00000000
  -V(xc)+E(xc)   XCENC  =       172.18262993
  PAW double counting   =      6059.25548889   -11108.38758097
  entropy T*S    EENTRO =         0.00000000
  eigenvalues    EBANDS =      -366.53434550
  atomic energy  EATOM  =      6950.95472638
  Solvation  Ediel_sol  =         0.00000000
  ---------------------------------------------------
  free energy    TOTEN  =     -5130.27818108 eV

  energy without entropy =    -5130.27818108  energy(sigma->0) =    -5130.27818108
  exchange ACFDT corr.  =         0.00000000  see jH, gK, PRB 81, 115126


--------------------------------------------------------------------------------------------------------




--------------------------------------- Iteration      1(   4)  ---------------------------------------


     EDDAV:  cpu time      0.7509: real time      0.7697
 BZINTS: Fermi energy:    2.568274;   72.000000 electrons
         Band energy:-0.371867E+03;  BLOECHL correction:    0.000000
       DOS:  cpu time      0.0040: real time      0.0040
    --------------------------------------------
      LOOP:  cpu time      0.7549: real time      0.7737

 eigenvalue-minimisations  :  3960
 total energy-change (2. order) :-0.5333105E+01  (-0.5315998E+01)
 number of electron      72.0000000 magnetization       4.8000000
 augmentation part       72.0000000 magnetization       4.8000000

 Free energy of the ion-electron system (eV)
  ---------------------------------------------------
  alpha Z        PSCENC =       185.64929911
  Ewald energy   TEWEN  =     -4678.36476469
  -Hartree energ DENC   =     -2345.03363423
  -exchange      EXHF   =         0.00000000
  -V(xc)+E(xc)   XCENC  =       172.18262993
  PAW double counting   =      6059.25548889   -11108.38758097
  entropy T*S    EENTRO =         0.00000000
  eigenvalues    EBANDS =      -371.86745060
  atomic energy  EATOM  =      6950.95472638
  Solvation  Ediel_sol  =         0.00000000
  ---------------------------------------------------
  free energy    TOTEN  =     -5135.61128618 eV

  energy without entropy =    -5135.61128618  energy(sigma->0) =    -5135.61128618
  exchange ACFDT corr.  =         0.00000000  see jH, gK, PRB 81, 115126


--------------------------------------------------------------------------------------------------------




--------------------------------------- Iteration      1(   5)  ---------------------------------------


    POTLOK:  cpu time      0.0407: real time      0.0554
    SETDIJ:  cpu time      0.9662: real time      0.9686
     EDDAV:  cpu time     47.4634: real time     47.5838
 BZINTS: Fermi energy:    3.410666;   72.000000 electrons
         Band energy:-0.323917E+03;  BLOECHL correction:    0.000000
       DOS:  cpu time      0.0040: real time      0.0042
    CHARGE:  cpu time      0.0670: real time      0.1043
    MIXING:  cpu time      0.0005: real time      0.0005
    --------------------------------------------
      LOOP:  cpu time     48.5419: real time     48.7167

 eigenvalue-minimisations  :  4260
 total energy-change (2. order) : 0.5099678E+04  (-0.3366087E+01)
 number of electron      71.9999999 magnetization      -2.8800000
 augmentation part       24.1706122 magnetization      -2.7952443

 Free energy of the ion-electron system (eV)
  ---------------------------------------------------
  alpha Z        PSCENC =       185.64929911
  Ewald energy   TEWEN  =     -4678.36476469
  -Hartree energ DENC   =     -2345.03363423
  -exchange      EXHF   =       166.63376504
  -V(xc)+E(xc)   XCENC  =       128.21679015
  PAW double counting   =      6100.71917604    -6220.79105344
  entropy T*S    EENTRO =         0.00000000
  eigenvalues    EBANDS =      -323.91725046
  atomic energy  EATOM  =      6950.95472638
  Solvation  Ediel_sol  =         0.00000000
  ---------------------------------------------------
  free energy    TOTEN  =       -35.93294610 eV

  energy without entropy =      -35.93294610  energy(sigma->0) =      -35.93294610
  exchange ACFDT corr.  =         0.00000000  see jH, gK, PRB 81, 115126


--------------------------------------------------------------------------------------------------------




--------------------------------------- Iteration      1(   6)  ---------------------------------------


    POTLOK:  cpu time      0.0430: real time      0.0550
    SETDIJ:  cpu time      0.9525: real time      0.9549
     EDDAV:  cpu time     46.7302: real time     46.8485
 BZINTS: Fermi energy:    3.710512;   72.000000 electrons
         Band energy:-0.318556E+03;  BLOECHL correction:    0.000000
       DOS:  cpu time      0.0047: real time      0.0049
    CHARGE:  cpu time      0.0771: real time      0.0773
    MIXING:  cpu time      0.0004: real time      0.0004
    --------------------------------------------
      LOOP:  cpu time     47.8079: real time     47.9410

 eigenvalue-minimisations  :  5304
 total energy-change (2. order) : 0.3445311E+00  (-0.3263995E+00)
 number of electron      71.9999999 magnetization       1.7280000
 augmentation part       23.9704768 magnetization       1.7362041

 Free energy of the ion-electron system (eV)
  ---------------------------------------------------
  alpha Z        PSCENC =       185.64929911
  Ewald energy   TEWEN  =     -4678.36476469
  -Hartree energ DENC   =     -2345.35248124
  -exchange      EXHF   =       162.05457788
  -V(xc)+E(xc)   XCENC  =       128.61201484
  PAW double counting   =      7291.03886324    -7411.62450020
  entropy T*S    EENTRO =         0.00000000
  eigenvalues    EBANDS =      -318.55615028
  atomic energy  EATOM  =      6950.95472638
  Solvation  Ediel_sol  =         0.00000000
  ---------------------------------------------------
  free energy    TOTEN  =       -35.58841496 eV

  energy without entropy =      -35.58841496  energy(sigma->0) =      -35.58841496
  exchange ACFDT corr.  =         0.00000000  see jH, gK, PRB 81, 115126


--------------------------------------------------------------------------------------------------------




--------------------------------------- Iteration      1(   7)  ---------------------------------------


    POTLOK:  cpu time      0.0451: real time      0.0591
    SETDIJ:  cpu time      0.9443: real time      0.9466
     EDDAV:  cpu time     46.7069: real time     46.8245
 BZINTS: Fermi energy:    3.596502;   72.000000 electrons
         Band energy:-0.331447E+03;  BLOECHL correction:    0.000000
       DOS:  cpu time      0.0042: real time      0.0042
    CHARGE:  cpu time      0.0652: real time      0.0654
    MIXING:  cpu time      0.0002: real time      0.0002
    --------------------------------------------
      LOOP:  cpu time     47.7660: real time     47.9001

 eigenvalue-minimisations  :  4872
 total energy-change (2. order) :-0.2016707E-02  (-0.1545566E+00)
 number of electron      71.9999999 magnetization      -1.0368000
 augmentation part       24.2479592 magnetization      -1.0229305

 Free energy of the ion-electron system (eV)
  ---------------------------------------------------
  alpha Z        PSCENC =       185.64929911
  Ewald energy   TEWEN  =     -4678.36476469
  -Hartree energ DENC   =     -2332.33507994
  -exchange      EXHF   =       160.19779007
  -V(xc)+E(xc)   XCENC  =       128.36402404
  PAW double counting   =      8343.99678303    -8462.60585308
  entropy T*S    EENTRO =         0.00000000
  eigenvalues    EBANDS =      -331.44735659
  atomic energy  EATOM  =      6950.95472638
  Solvation  Ediel_sol  =         0.00000000
  ---------------------------------------------------
  free energy    TOTEN  =       -35.59043167 eV

  energy without entropy =      -35.59043167  energy(sigma->0) =      -35.59043167
  exchange ACFDT corr.  =         0.00000000  see jH, gK, PRB 81, 115126


--------------------------------------------------------------------------------------------------------




--------------------------------------- Iteration      1(   8)  ---------------------------------------


    POTLOK:  cpu time      0.0411: real time      0.0560
    SETDIJ:  cpu time      0.9447: real time      0.9471
     EDDAV:  cpu time     47.3737: real time     47.4927
 BZINTS: Fermi energy:    3.611056;   72.000000 electrons
         Band energy:-0.327744E+03;  BLOECHL correction:    0.000000
       DOS:  cpu time      0.0040: real time      0.0041
    CHARGE:  cpu time      0.0732: real time      0.0733
    MIXING:  cpu time      0.0003: real time      0.0003
    --------------------------------------------
      LOOP:  cpu time     48.4369: real time     48.5735

 eigenvalue-minimisations  :  4920
 total energy-change (2. order) :-0.8008286E-01  (-0.4508872E-01)
 number of electron      71.9999998 magnetization       0.6220800
 augmentation part       24.2523006 magnetization       0.6239692

 Free energy of the ion-electron system (eV)
  ---------------------------------------------------
  alpha Z        PSCENC =       185.64929911
  Ewald energy   TEWEN  =     -4678.36476469
  -Hartree energ DENC   =     -2334.10405943
  -exchange      EXHF   =       160.51003525
  -V(xc)+E(xc)   XCENC  =       128.50045931
  PAW double counting   =      9061.56803714    -9182.63977245
  entropy T*S    EENTRO =         0.00000000
  eigenvalues    EBANDS =      -327.74447516
  atomic energy  EATOM  =      6950.95472638
  Solvation  Ediel_sol  =         0.00000000
  ---------------------------------------------------
  free energy    TOTEN  =       -35.67051453 eV

  energy without entropy =      -35.67051453  energy(sigma->0) =      -35.67051453
  exchange ACFDT corr.  =         0.00000000  see jH, gK, PRB 81, 115126


--------------------------------------------------------------------------------------------------------




--------------------------------------- Iteration      1(   9)  ---------------------------------------


    POTLOK:  cpu time      0.0420: real time      0.0584
    SETDIJ:  cpu time      0.9486: real time      0.9509
     EDDAV:  cpu time     46.3758: real time     46.4964
 BZINTS: Fermi energy:    3.678613;   72.000000 electrons
         Band energy:-0.325903E+03;  BLOECHL correction:    0.000000
       DOS:  cpu time      0.0041: real time      0.0042
    CHARGE:  cpu time      0.0896: real time      0.0898
    MIXING:  cpu time      0.0003: real time      0.0003
    --------------------------------------------
      LOOP:  cpu time     47.4603: real time     47.6001

 eigenvalue-minimisations  :  4668
 total energy-change (2. order) :-0.9582412E-02  (-0.4226731E-02)
 number of electron      71.9999998 magnetization      -0.3732480
 augmentation part       24.2167512 magnetization      -0.3712442

 Free energy of the ion-electron system (eV)
  ---------------------------------------------------
  alpha Z        PSCENC =       185.64929911
  Ewald energy   TEWEN  =     -4678.36476469
  -Hartree energ DENC   =     -2334.41544648
  -exchange      EXHF   =       160.25566323
  -V(xc)+E(xc)   XCENC  =       128.55241172
  PAW double counting   =      9531.82864218    -9654.23758878
  entropy T*S    EENTRO =         0.00000000
  eigenvalues    EBANDS =      -325.90303961
  atomic energy  EATOM  =      6950.95472638
  Solvation  Ediel_sol  =         0.00000000
  ---------------------------------------------------
  free energy    TOTEN  =       -35.68009694 eV

  energy without entropy =      -35.68009694  energy(sigma->0) =      -35.68009694
  exchange ACFDT corr.  =         0.00000000  see jH, gK, PRB 81, 115126


--------------------------------------------------------------------------------------------------------




--------------------------------------- Iteration      1(  10)  ---------------------------------------


    POTLOK:  cpu time      0.0540: real time      0.0664
    SETDIJ:  cpu time      0.9462: real time      0.9486
     EDDAV:  cpu time     47.0332: real time     47.1516
 BZINTS: Fermi energy:    3.597949;   72.000000 electrons
         Band energy:-0.326452E+03;  BLOECHL correction:    0.000000
       DOS:  cpu time      0.0046: real time      0.0046
    CHARGE:  cpu time      0.0644: real time      0.0646
    MIXING:  cpu time      0.0002: real time      0.0002
    --------------------------------------------
      LOOP:  cpu time     48.1026: real time     48.2359

 eigenvalue-minimisations  :  5004
 total energy-change (2. order) :-0.2932144E-02  (-0.2024732E-02)
 number of electron      71.9999998 magnetization       0.2239488
 augmentation part       24.2153056 magnetization       0.2244806

 Free energy of the ion-electron system (eV)
  ---------------------------------------------------
  alpha Z        PSCENC =       185.64929911
  Ewald energy   TEWEN  =     -4678.36476469
  -Hartree energ DENC   =     -2333.29775043
  -exchange      EXHF   =       160.15370671
  -V(xc)+E(xc)   XCENC  =       128.54749143
  PAW double counting   =      9796.13057909    -9919.00423497
  entropy T*S    EENTRO =         0.00000000
  eigenvalues    EBANDS =      -326.45208173
  atomic energy  EATOM  =      6950.95472638
  Solvation  Ediel_sol  =         0.00000000
  ---------------------------------------------------
  free energy    TOTEN  =       -35.68302909 eV

  energy without entropy =      -35.68302909  energy(sigma->0) =      -35.68302909
  exchange ACFDT corr.  =         0.00000000  see jH, gK, PRB 81, 115126


--------------------------------------------------------------------------------------------------------




--------------------------------------- Iteration      1(  11)  ---------------------------------------


    POTLOK:  cpu time      0.0409: real time      0.0572
    SETDIJ:  cpu time      0.9478: real time      0.9502
     EDDAV:  cpu time     46.3847: real time     46.5016
 BZINTS: Fermi energy:    3.580536;   72.000000 electrons
         Band energy:-0.326457E+03;  BLOECHL correction:    0.000000
       DOS:  cpu time      0.0049: real time      0.0049
    CHARGE:  cpu time      0.0756: real time      0.0758
    MIXING:  cpu time      0.0003: real time      0.0003
    --------------------------------------------
      LOOP:  cpu time     47.4542: real time     47.5899

 eigenvalue-minimisations  :  4272
 total energy-change (2. order) :-0.2355795E-02  (-0.5551259E-03)
 number of electron      71.9999998 magnetization      -0.1343693
 augmentation part       24.2140421 magnetization      -0.1341966

 Free energy of the ion-electron system (eV)
  ---------------------------------------------------
  alpha Z        PSCENC =       185.64929911
  Ewald energy   TEWEN  =     -4678.36476469
  -Hartree energ DENC   =     -2333.00437630
  -exchange      EXHF   =       160.22460499
  -V(xc)+E(xc)   XCENC  =       128.56098639
  PAW double counting   =      9929.77893612   -10053.02805837
  entropy T*S    EENTRO =         0.00000000
  eigenvalues    EBANDS =      -326.45673852
  atomic energy  EATOM  =      6950.95472638
  Solvation  Ediel_sol  =         0.00000000
  ---------------------------------------------------
  free energy    TOTEN  =       -35.68538488 eV

  energy without entropy =      -35.68538488  energy(sigma->0) =      -35.68538488
  exchange ACFDT corr.  =         0.00000000  see jH, gK, PRB 81, 115126


--------------------------------------------------------------------------------------------------------




--------------------------------------- Iteration      1(  12)  ---------------------------------------


    POTLOK:  cpu time      0.0431: real time      0.0571
    SETDIJ:  cpu time      0.9464: real time      0.9488
     EDDAV:  cpu time     46.4131: real time     46.5298
 BZINTS: Fermi energy:    3.587256;   72.000000 electrons
         Band energy:-0.326300E+03;  BLOECHL correction:    0.000000
       DOS:  cpu time      0.0048: real time      0.0049
    CHARGE:  cpu time      0.0645: real time      0.0646
    MIXING:  cpu time      0.0002: real time      0.0002
    --------------------------------------------
      LOOP:  cpu time     47.4722: real time     47.6055

 eigenvalue-minimisations  :  4452
 total energy-change (2. order) :-0.9599473E-03  (-0.1827981E-03)
 number of electron      71.9999998 magnetization       0.0806216
 augmentation part       24.2116078 magnetization       0.0808717

 Free energy of the ion-electron system (eV)
  ---------------------------------------------------
  alpha Z        PSCENC =       185.64929911
  Ewald energy   TEWEN  =     -4678.36476469
  -Hartree energ DENC   =     -2332.97448610
  -exchange      EXHF   =       160.25329674
  -V(xc)+E(xc)   XCENC  =       128.57552956
  PAW double counting   =     10007.98258337   -10131.46285837
  entropy T*S    EENTRO =         0.00000000
  eigenvalues    EBANDS =      -326.29967083
  atomic energy  EATOM  =      6950.95472638
  Solvation  Ediel_sol  =         0.00000000
  ---------------------------------------------------
  free energy    TOTEN  =       -35.68634483 eV

  energy without entropy =      -35.68634483  energy(sigma->0) =      -35.68634483
  exchange ACFDT corr.  =         0.00000000  see jH, gK, PRB 81, 115126


--------------------------------------------------------------------------------------------------------




--------------------------------------- Iteration      1(  13)  ---------------------------------------


    POTLOK:  cpu time      0.0408: real time      0.0569
    SETDIJ:  cpu time      0.9478: real time      0.9503
     EDDAV:  cpu time     47.1089: real time     47.2276
 BZINTS: Fermi energy:    3.578348;   72.000000 electrons
         Band energy:-0.326227E+03;  BLOECHL correction:    0.000000
       DOS:  cpu time      0.0044: real time      0.0044
    CHARGE:  cpu time      0.0768: real time      0.0769
    MIXING:  cpu time      0.0003: real time      0.0003
    --------------------------------------------
      LOOP:  cpu time     48.1790: real time     48.3165

 eigenvalue-minimisations  :  4128
 total energy-change (2. order) :-0.4119229E-03  (-0.5858896E-04)
 number of electron      71.9999998 magnetization      -0.0483729
 augmentation part       24.2107175 magnetization      -0.0483546

 Free energy of the ion-electron system (eV)
  ---------------------------------------------------
  alpha Z        PSCENC =       185.64929911
  Ewald energy   TEWEN  =     -4678.36476469
  -Hartree energ DENC   =     -2332.93656685
  -exchange      EXHF   =       160.25452003
  -V(xc)+E(xc)   XCENC  =       128.58397496
  PAW double counting   =     10055.44223619   -10179.04274426
  entropy T*S    EENTRO =         0.00000000
  eigenvalues    EBANDS =      -326.22743763
  atomic energy  EATOM  =      6950.95472638
  Solvation  Ediel_sol  =         0.00000000
  ---------------------------------------------------
  free energy    TOTEN  =       -35.68675675 eV

  energy without entropy =      -35.68675675  energy(sigma->0) =      -35.68675675
  exchange ACFDT corr.  =         0.00000000  see jH, gK, PRB 81, 115126


--------------------------------------------------------------------------------------------------------




--------------------------------------- Iteration      1(  14)  ---------------------------------------


    POTLOK:  cpu time      0.0566: real time      0.0731
    SETDIJ:  cpu time      0.9429: real time      0.9453
     EDDAV:  cpu time     46.3539: real time     46.4705
 BZINTS: Fermi energy:    3.583747;   72.000000 electrons
         Band energy:-0.326171E+03;  BLOECHL correction:    0.000000
       DOS:  cpu time      0.0049: real time      0.0050
    CHARGE:  cpu time      0.0651: real time      0.0652
    MIXING:  cpu time      0.0002: real time      0.0002
    --------------------------------------------
      LOOP:  cpu time     47.4236: real time     47.5593

 eigenvalue-minimisations  :  4440
 total energy-change (2. order) :-0.1919433E-03  (-0.2149649E-04)
 number of electron      71.9999998 magnetization       0.0290238
 augmentation part       24.2106846 magnetization       0.0290709

 Free energy of the ion-electron system (eV)
  ---------------------------------------------------
  alpha Z        PSCENC =       185.64929911
  Ewald energy   TEWEN  =     -4678.36476469
  -Hartree energ DENC   =     -2332.92401380
  -exchange      EXHF   =       160.25402949
  -V(xc)+E(xc)   XCENC  =       128.58915299
  PAW double counting   =     10083.56072108   -10207.23474175
  entropy T*S    EENTRO =         0.00000000
  eigenvalues    EBANDS =      -326.17135751
  atomic energy  EATOM  =      6950.95472638
  Solvation  Ediel_sol  =         0.00000000
  ---------------------------------------------------
  free energy    TOTEN  =       -35.68694870 eV

  energy without entropy =      -35.68694870  energy(sigma->0) =      -35.68694870
  exchange ACFDT corr.  =         0.00000000  see jH, gK, PRB 81, 115126


--------------------------------------------------------------------------------------------------------




--------------------------------------- Iteration      1(  15)  ---------------------------------------


    POTLOK:  cpu time      0.0412: real time      0.0578
    SETDIJ:  cpu time      0.9527: real time      0.9551
     EDDAV:  cpu time     47.1823: real time     47.3011
 BZINTS: Fermi energy:    3.580775;   72.000000 electrons
         Band energy:-0.326106E+03;  BLOECHL correction:    0.000000
       DOS:  cpu time      0.0040: real time      0.0040
    CHARGE:  cpu time      0.0651: real time      0.0652
    MIXING:  cpu time      0.0002: real time      0.0002
    --------------------------------------------
      LOOP:  cpu time     48.2455: real time     48.3836

 eigenvalue-minimisations  :  4044
 total energy-change (2. order) :-0.9310242E-04  (-0.8274245E-05)
 number of electron      71.9999998 magnetization      -0.0174143
 augmentation part       24.2105843 magnetization      -0.0174229

 Free energy of the ion-electron system (eV)
  ---------------------------------------------------
  alpha Z        PSCENC =       185.64929911
  Ewald energy   TEWEN  =     -4678.36476469
  -Hartree energ DENC   =     -2332.94090182
  -exchange      EXHF   =       160.25385687
  -V(xc)+E(xc)   XCENC  =       128.59277212
  PAW double counting   =     10100.36367790   -10224.08973219
  entropy T*S    EENTRO =         0.00000000
  eigenvalues    EBANDS =      -326.10597548
  atomic energy  EATOM  =      6950.95472638
  Solvation  Ediel_sol  =         0.00000000
  ---------------------------------------------------
  free energy    TOTEN  =       -35.68704180 eV

  energy without entropy =      -35.68704180  energy(sigma->0) =      -35.68704180
  exchange ACFDT corr.  =         0.00000000  see jH, gK, PRB 81, 115126


--------------------------------------------------------------------------------------------------------




--------------------------------------- Iteration      1(  16)  ---------------------------------------


    POTLOK:  cpu time      0.0407: real time      0.0550
    SETDIJ:  cpu time      0.9421: real time      0.9445
     EDDAV:  cpu time     46.3921: real time     46.5087
 BZINTS: Fermi energy:    3.582768;   72.000000 electrons
         Band energy:-0.326057E+03;  BLOECHL correction:    0.000000
       DOS:  cpu time      0.0048: real time      0.0049
    CHARGE:  cpu time      0.0874: real time      0.0876
    MIXING:  cpu time      0.0003: real time      0.0003
    --------------------------------------------
      LOOP:  cpu time     47.4673: real time     47.6009

 eigenvalue-minimisations  :  3540
 total energy-change (2. order) :-0.4480443E-04  (-0.2981215E-05)
 number of electron      71.9999998 magnetization       0.0104486
 augmentation part       24.2103533 magnetization       0.0105522

 Free energy of the ion-electron system (eV)
  ---------------------------------------------------
  alpha Z        PSCENC =       185.64929911
  Ewald energy   TEWEN  =     -4678.36476469
  -Hartree energ DENC   =     -2332.95783146
  -exchange      EXHF   =       160.25273623
  -V(xc)+E(xc)   XCENC  =       128.59500039
  PAW double counting   =     10110.61050980   -10234.36956031
  entropy T*S    EENTRO =         0.00000000
  eigenvalues    EBANDS =      -326.05720206
  atomic energy  EATOM  =      6950.95472638
  Solvation  Ediel_sol  =         0.00000000
  ---------------------------------------------------
  free energy    TOTEN  =       -35.68708660 eV

  energy without entropy =      -35.68708660  energy(sigma->0) =      -35.68708660
  exchange ACFDT corr.  =         0.00000000  see jH, gK, PRB 81, 115126


--------------------------------------------------------------------------------------------------------




--------------------------------------- Iteration      1(  17)  ---------------------------------------


    POTLOK:  cpu time      0.0509: real time      0.0640
    SETDIJ:  cpu time      0.9496: real time      0.9520
     EDDAV:  cpu time     46.5899: real time     46.7208
 BZINTS: Fermi energy:    3.581647;   72.000000 electrons
         Band energy:-0.326030E+03;  BLOECHL correction:    0.000000
       DOS:  cpu time      0.0040: real time      0.0040
    CHARGE:  cpu time      0.0650: real time      0.0652
    MIXING:  cpu time      0.0002: real time      0.0002
    --------------------------------------------
      LOOP:  cpu time     47.6596: real time     47.8062

 eigenvalue-minimisations  :  3024
 total energy-change (2. order) :-0.2157354E-04  (-0.1144562E-05)
 number of electron      71.9999998 magnetization      -0.0062691
 augmentation part       24.2103890 magnetization      -0.0063314

 Free energy of the ion-electron system (eV)
  ---------------------------------------------------
  alpha Z        PSCENC =       185.64929911
  Ewald energy   TEWEN  =     -4678.36476469
  -Hartree energ DENC   =     -2332.96685315
  -exchange      EXHF   =       160.25191092
  -V(xc)+E(xc)   XCENC  =       128.59623445
  PAW double counting   =     10116.76101650   -10240.53893321
  entropy T*S    EENTRO =         0.00000000
  eigenvalues    EBANDS =      -326.02974450
  atomic energy  EATOM  =      6950.95472638
  Solvation  Ediel_sol  =         0.00000000
  ---------------------------------------------------
  free energy    TOTEN  =       -35.68710818 eV

  energy without entropy =      -35.68710818  energy(sigma->0) =      -35.68710818
  exchange ACFDT corr.  =         0.00000000  see jH, gK, PRB 81, 115126


--------------------------------------------------------------------------------------------------------




--------------------------------------- Iteration      1(  18)  ---------------------------------------


    POTLOK:  cpu time      0.0412: real time      0.0573
    SETDIJ:  cpu time      0.9466: real time      0.9490
     EDDAV:  cpu time     46.7317: real time     46.8493
 BZINTS: Fermi energy:    3.582270;   72.000000 electrons
         Band energy:-0.326006E+03;  BLOECHL correction:    0.000000
       DOS:  cpu time      0.0047: real time      0.0048
    CHARGE:  cpu time      0.0777: real time      0.0778
    MIXING:  cpu time      0.0003: real time      0.0003
    --------------------------------------------
      LOOP:  cpu time     47.8022: real time     47.9384

 eigenvalue-minimisations  :  2760
 total energy-change (2. order) :-0.1052975E-04  (-0.5881012E-06)
 number of electron      71.9999998 magnetization       0.0037615
 augmentation part       24.2102201 magnetization       0.0038338

 Free energy of the ion-electron system (eV)
  ---------------------------------------------------
  alpha Z        PSCENC =       185.64929911
  Ewald energy   TEWEN  =     -4678.36476469
  -Hartree energ DENC   =     -2332.97897684
  -exchange      EXHF   =       160.25209539
  -V(xc)+E(xc)   XCENC  =       128.59717588
  PAW double counting   =     10120.43561657   -10244.22651674
  entropy T*S    EENTRO =         0.00000000
  eigenvalues    EBANDS =      -326.00577377
  atomic energy  EATOM  =      6950.95472638
  Solvation  Ediel_sol  =         0.00000000
  ---------------------------------------------------
  free energy    TOTEN  =       -35.68711871 eV

  energy without entropy =      -35.68711871  energy(sigma->0) =      -35.68711871
  exchange ACFDT corr.  =         0.00000000  see jH, gK, PRB 81, 115126


--------------------------------------------------------------------------------------------------------




--------------------------------------- Iteration      1(  19)  ---------------------------------------


    POTLOK:  cpu time      0.0420: real time      0.0577
    SETDIJ:  cpu time      0.9502: real time      0.9526
     EDDAV:  cpu time     46.2142: real time     46.3304
 BZINTS: Fermi energy:    3.581749;   72.000000 electrons
         Band energy:-0.325996E+03;  BLOECHL correction:    0.000000
       DOS:  cpu time      0.0040: real time      0.0040
    --------------------------------------------
      LOOP:  cpu time     47.2104: real time     47.3447

 eigenvalue-minimisations  :  2664
 total energy-change (2. order) :-0.5243169E-05  (-0.3186169E-06)
 number of electron      71.9999998 magnetization       0.0037615
 augmentation part       24.2102201 magnetization       0.0038338

 Free energy of the ion-electron system (eV)
  ---------------------------------------------------
  alpha Z        PSCENC =       185.64929911
  Ewald energy   TEWEN  =     -4678.36476469
  -Hartree energ DENC   =     -2332.98297185
  -exchange      EXHF   =       160.25165453
  -V(xc)+E(xc)   XCENC  =       128.59761570
  PAW double counting   =     10122.68109030   -10246.47783926
  entropy T*S    EENTRO =         0.00000000
  eigenvalues    EBANDS =      -325.99593417
  atomic energy  EATOM  =      6950.95472638
  Solvation  Ediel_sol  =         0.00000000
  ---------------------------------------------------
[...]
     21      -0.1854      1.00000
     22      -0.1853      1.00000
     23       0.0718      1.00000
     24       0.0718      1.00000
     25       0.4094      1.00000
     26       0.4095      1.00000
     27       1.0041      1.00000
     28       1.0042      1.00000
     29       1.4813      1.00000
     30       1.4814      1.00000
     31       2.0467      1.00000
     32       2.0468      1.00000
     33       2.6188      1.00000
     34       2.6188      1.00000
     35       2.8268      1.00000
     36       2.8269      1.00000
     37       5.7116      0.00000
     38       5.7117      0.00000
     39       7.7627      0.00000
     40       7.7627      0.00000
     41       9.0774      0.00000
     42       9.0774      0.00000
     43       9.5677      0.00000
     44       9.5678      0.00000
     45      10.4087      0.00000
     46      10.4088      0.00000
     47      10.7306      0.00000
     48      10.7306      0.00000

 k-point    16 :      -0.2500    0.5000    0.3333
  band No.  band energies     occupation 
      1     -13.2026      1.00000
      2     -13.1924      1.00000
      3     -13.1199      1.00000
      4     -13.0450      1.00000
      5     -12.9684      1.00000
      6     -12.9557      1.00000
      7     -12.8805      1.00000
      8     -12.8768      1.00000
      9     -12.8657      1.00000
     10     -12.8653      1.00000
     11     -10.8087      1.00000
     12     -10.4922      1.00000
     13     -10.4015      1.00000
     14     -10.1702      1.00000
     15      -3.0286      1.00000
     16      -2.8516      1.00000
     17      -1.6726      1.00000
     18      -1.3638      1.00000
     19      -0.8961      1.00000
     20      -0.3767      1.00000
     21      -0.2554      1.00000
     22      -0.1737      1.00000
     23      -0.0763      1.00000
     24       0.1247      1.00000
     25       0.3015      1.00000
     26       0.4939      1.00000
     27       1.0329      1.00000
     28       1.0592      1.00000
     29       1.1739      1.00000
     30       1.4720      1.00000
     31       1.8030      1.00000
     32       1.9350      1.00000
     33       2.1038      1.00000
     34       2.4712      1.00000
     35       2.7538      1.00000
     36       2.8820      1.00000
     37       6.0965      0.00000
     38       6.2503      0.00000
     39       7.8854      0.00000
     40       8.2066      0.00000
     41       8.5317      0.00000
     42       8.9986      0.00000
     43       9.3404      0.00000
     44       9.7973      0.00000
     45      10.0716      0.00000
     46      10.5571      0.00000
     47      10.7403      0.00000
     48      10.8263      0.00000

 k-point    17 :      -0.2500   -0.2500    0.3333
  band No.  band energies     occupation 
      1     -13.1913      1.00000
      2     -13.1908      1.00000
      3     -13.1495      1.00000
      4     -13.0023      1.00000
      5     -12.9696      1.00000
      6     -12.9589      1.00000
      7     -12.8839      1.00000
      8     -12.8757      1.00000
      9     -12.8694      1.00000
     10     -12.8632      1.00000
     11     -11.1908      1.00000
     12     -10.2861      1.00000
     13     -10.2548      1.00000
     14     -10.1098      1.00000
     15      -3.1070      1.00000
     16      -2.7135      1.00000
     17      -1.6792      1.00000
     18      -0.9912      1.00000
     19      -0.8650      1.00000
     20      -0.5150      1.00000
     21      -0.4025      1.00000
     22      -0.2102      1.00000
     23      -0.0967      1.00000
     24       0.0659      1.00000
     25       0.2129      1.00000
     26       0.5558      1.00000
     27       0.9898      1.00000
     28       1.1434      1.00000
     29       1.2454      1.00000
     30       1.3076      1.00000
     31       1.6011      1.00000
     32       1.8625      1.00000
     33       1.9499      1.00000
     34       2.1712      1.00000
     35       2.8968      1.00000
     36       3.3534      1.00000
     37       5.8374      0.00000
     38       6.5232      0.00000
     39       7.5826      0.00000
     40       7.8101      0.00000
     41       8.5802      0.00000
     42       8.8518      0.00000
     43       9.4236      0.00000
     44       9.7402      0.00000
     45      10.1666      0.00000
     46      10.2583      0.00000
     47      11.0046      0.00000
     48      11.6403      0.00000


--------------------------------------------------------------------------------------------------------


 soft charge-density along one line, spin component           1
         0         1         2         3         4         5         6         7         8         9
 total charge-density along one line
 
 soft charge-density along one line, spin component           2
         0         1         2         3         4         5         6         7         8         9
 total charge-density along one line
 
 pseudopotential strength for first ion, spin component:           1
-10.651  -0.003  -0.001  -0.001  -0.001   1.369   0.002   0.000
 -0.003 -10.656  -0.003  -0.001  -0.002   0.002   1.371   0.002
 -0.001  -0.003 -10.654  -0.003   0.000   0.000   0.002   1.370
 -0.001  -0.001  -0.003 -10.656   0.003   0.001   0.001   0.001
 -0.001  -0.002   0.000   0.003 -10.657   0.001   0.001  -0.000
  1.369   0.002   0.000   0.001   0.001   6.004  -0.000   0.000
  0.002   1.371   0.002   0.001   0.001  -0.000   6.003  -0.000
  0.000   0.002   1.370   0.001  -0.000   0.000  -0.000   6.003
  0.001   0.001   0.001   1.371  -0.002  -0.000  -0.000  -0.000
  0.001   0.001  -0.000  -0.002   1.371  -0.000  -0.000  -0.000
 -0.000  -0.001  -0.000  -0.000   0.000   0.000   0.000   0.000
 -0.000  -0.001  -0.001  -0.001   0.000   0.000   0.000   0.000
  0.003  -0.002  -0.002   0.002   0.001  -0.004   0.002   0.002
  0.002  -0.002   0.003  -0.002  -0.000  -0.002   0.002  -0.003
  0.002   0.002  -0.002  -0.002  -0.002  -0.002  -0.002   0.002
  0.007  -0.003  -0.003   0.004   0.003  -0.007   0.003   0.004
  0.004  -0.004   0.007  -0.004  -0.001  -0.004   0.004  -0.007
  0.005   0.004  -0.004  -0.005  -0.005  -0.005  -0.004   0.003
 pseudopotential strength for first ion, spin component:           2
-10.651  -0.003  -0.001  -0.001  -0.001   1.368   0.002   0.000
 -0.003 -10.656  -0.003  -0.001  -0.002   0.002   1.371   0.002
 -0.001  -0.003 -10.654  -0.003   0.000   0.000   0.002   1.370
 -0.001  -0.001  -0.003 -10.656   0.003   0.001   0.001   0.001
 -0.001  -0.002   0.000   0.003 -10.657   0.001   0.001  -0.000
  1.368   0.002   0.000   0.001   0.001   6.004  -0.000   0.000
  0.002   1.371   0.002   0.001   0.001  -0.000   6.003  -0.000
  0.000   0.002   1.370   0.001  -0.000   0.000  -0.000   6.003
  0.001   0.001   0.001   1.371  -0.002  -0.000  -0.000  -0.000
  0.001   0.001  -0.000  -0.002   1.371  -0.000  -0.000  -0.000
 -0.000  -0.001  -0.000  -0.000   0.000   0.000   0.000   0.000
 -0.000  -0.001  -0.001  -0.001   0.000   0.000   0.000   0.000
  0.003  -0.002  -0.002   0.002   0.001  -0.004   0.002   0.002
  0.002  -0.002   0.003  -0.002  -0.000  -0.002   0.002  -0.003
  0.002   0.002  -0.002  -0.002  -0.002  -0.002  -0.002   0.002
  0.007  -0.003  -0.003   0.004   0.003  -0.007   0.003   0.004
  0.004  -0.004   0.007  -0.004  -0.001  -0.004   0.004  -0.007
  0.005   0.004  -0.004  -0.005  -0.005  -0.005  -0.004   0.003
 total augmentation occupancy for first ion, spin component:           1
  1.992  -0.000  -0.000  -0.000   0.000  -0.005  -0.001  -0.001  -0.001  -0.000  -0.005   0.004   0.101   0.057   0.068  -0.055
 -0.000   1.991  -0.000  -0.000  -0.000  -0.001  -0.009  -0.002  -0.001  -0.002  -0.011   0.009  -0.049  -0.057   0.057   0.027
 -0.000  -0.000   1.992  -0.000   0.000  -0.001  -0.002  -0.007  -0.002   0.000  -0.009   0.007  -0.049   0.099  -0.051   0.027
 -0.000  -0.000  -0.000   1.992   0.000  -0.001  -0.001  -0.002  -0.008   0.002  -0.009   0.008   0.057  -0.058  -0.065  -0.031
  0.000  -0.000   0.000   0.000   1.991  -0.000  -0.002   0.000   0.002  -0.009   0.001  -0.001   0.039  -0.008  -0.071  -0.021
 -0.005  -0.001  -0.001  -0.001  -0.000   0.043  -0.008  -0.003  -0.004  -0.003  -0.007   0.004   0.199   0.114   0.134  -0.053
 -0.001  -0.009  -0.002  -0.001  -0.002  -0.008   0.027  -0.010  -0.004  -0.008  -0.015   0.010  -0.095  -0.110   0.113   0.026
 -0.001  -0.002  -0.007  -0.002   0.000  -0.003  -0.010   0.036  -0.008   0.001  -0.012   0.008  -0.097   0.195  -0.100   0.025
 -0.001  -0.001  -0.002  -0.008   0.002  -0.004  -0.004  -0.008   0.030   0.011  -0.012   0.008   0.111  -0.118  -0.129  -0.030
 -0.000  -0.002   0.000   0.002  -0.009  -0.003  -0.008   0.001   0.011   0.023   0.001  -0.001   0.079  -0.012  -0.139  -0.021
 -0.005  -0.011  -0.009  -0.009   0.001  -0.007  -0.015  -0.012  -0.012   0.001  16.525  -9.431   0.000  -0.000   0.000  -0.000
  0.004   0.009   0.007   0.008  -0.001   0.004   0.010   0.008   0.008  -0.001  -9.431   5.444  -0.000  -0.000  -0.000   0.000
  0.101  -0.049  -0.049   0.057   0.039   0.199  -0.095  -0.097   0.111   0.079   0.000  -0.000   3.146  -0.045  -0.020  -0.843
  0.057  -0.057   0.099  -0.058  -0.008   0.114  -0.110   0.195  -0.118  -0.012  -0.000  -0.000  -0.045   3.089  -0.037   0.015
  0.068   0.057  -0.051  -0.065  -0.071   0.134   0.113  -0.100  -0.129  -0.139   0.000  -0.000  -0.020  -0.037   3.154   0.007
 -0.055   0.027   0.027  -0.031  -0.021  -0.053   0.026   0.025  -0.030  -0.021  -0.000   0.000  -0.843   0.015   0.007   0.232
 -0.031   0.031  -0.054   0.032   0.004  -0.030   0.029  -0.052   0.032   0.003   0.000   0.000   0.015  -0.824   0.012  -0.005
 -0.037  -0.031   0.028   0.036   0.039  -0.036  -0.030   0.027   0.034   0.036  -0.000   0.000   0.007   0.012  -0.846  -0.002
 total augmentation occupancy for first ion, spin component:           2
 -0.000   0.000   0.000   0.000   0.000  -0.000   0.000   0.000   0.000   0.000   0.000  -0.000   0.000   0.000   0.000  -0.000
  0.000  -0.000   0.000   0.000   0.000   0.000  -0.000   0.000   0.000   0.000  -0.000   0.000  -0.000  -0.000   0.000   0.000
  0.000   0.000  -0.000   0.000  -0.000   0.000   0.000  -0.000   0.000  -0.000  -0.000   0.000  -0.000   0.000  -0.000   0.000
  0.000   0.000   0.000  -0.000  -0.000   0.000   0.000   0.000  -0.000  -0.000  -0.000   0.000   0.000  -0.000  -0.000  -0.000
  0.000   0.000  -0.000  -0.000  -0.000   0.000   0.000  -0.000  -0.000  -0.000  -0.000   0.000   0.000  -0.000  -0.000  -0.000
 -0.000   0.000   0.000   0.000   0.000   0.000  -0.000  -0.000  -0.000  -0.000  -0.000   0.000   0.000   0.000   0.000  -0.000
  0.000  -0.000   0.000   0.000   0.000  -0.000   0.000  -0.000  -0.000  -0.000  -0.000   0.000  -0.000  -0.000   0.000   0.000
  0.000   0.000  -0.000   0.000  -0.000  -0.000  -0.000   0.000  -0.000   0.000  -0.000   0.000  -0.000   0.000  -0.000   0.000
  0.000   0.000   0.000  -0.000  -0.000  -0.000  -0.000  -0.000   0.000   0.000   0.000  -0.000   0.000  -0.000  -0.000  -0.000
  0.000   0.000  -0.000  -0.000  -0.000  -0.000  -0.000   0.000   0.000   0.000  -0.000   0.000   0.000  -0.000  -0.000  -0.000
  0.000  -0.000  -0.000  -0.000  -0.000  -0.000  -0.000  -0.000   0.000  -0.000  -0.000   0.000  -0.000  -0.000   0.000   0.000
 -0.000   0.000   0.000   0.000   0.000   0.000   0.000   0.000  -0.000   0.000   0.000  -0.000  -0.000   0.000  -0.000  -0.000
  0.000  -0.000  -0.000   0.000   0.000   0.000  -0.000  -0.000   0.000   0.000  -0.000  -0.000   0.000   0.000  -0.000  -0.000
  0.000  -0.000   0.000  -0.000  -0.000   0.000  -0.000   0.000  -0.000  -0.000  -0.000   0.000   0.000   0.000   0.000  -0.000
  0.000   0.000  -0.000  -0.000  -0.000   0.000   0.000  -0.000  -0.000  -0.000   0.000  -0.000  -0.000   0.000   0.000  -0.000
 -0.000   0.000   0.000  -0.000  -0.000  -0.000   0.000   0.000  -0.000  -0.000   0.000  -0.000  -0.000  -0.000  -0.000   0.000
 -0.000   0.000  -0.000   0.000   0.000  -0.000   0.000  -0.000   0.000   0.000   0.000  -0.000  -0.000  -0.000  -0.000   0.000
 -0.000  -0.000   0.000   0.000   0.000  -0.000  -0.000   0.000   0.000   0.000  -0.000   0.000   0.000  -0.000  -0.000   0.000


------------------------ aborting loop because EDIFF is reached ----------------------------------------





 total charge

# of ion       s       p       d       tot
------------------------------------------
    1        0.829   0.657   9.924  11.411
    2        0.829   0.657   9.924  11.411
    3        0.336   0.323   9.376  10.035
    4        0.336   0.323   9.376  10.035
    5        1.457   2.423   0.039   3.919
    6        1.457   2.423   0.039   3.919
    7        1.457   2.423   0.039   3.919
    8        1.457   2.423   0.039   3.919
--------------------------------------------------
tot          8.159  11.652  38.756  58.567



 magnetization (x)

# of ion       s       p       d       tot
------------------------------------------
    1       -0.000   0.000  -0.000  -0.000
    2       -0.000   0.000  -0.000  -0.000
    3       -0.000  -0.000  -0.000  -0.000
    4       -0.000  -0.000  -0.000  -0.000
    5        0.000  -0.000   0.000  -0.000
    6        0.000  -0.000   0.000  -0.000
    7        0.000  -0.000   0.000  -0.000
    8        0.000  -0.000   0.000  -0.000
--------------------------------------------------
tot         -0.000  -0.000  -0.000  -0.000
 
    CHARGE:  cpu time      0.0650: real time      0.0651
    FORLOC:  cpu time      0.0010: real time      0.0011
    FORHF :  cpu time     42.1212: real time     42.2277
    FORNL :  cpu time      0.0956: real time      0.0963
    FORCOR:  cpu time      1.0523: real time      1.0552
    FORHAR:  cpu time      0.0056: real time      0.0060
    MIXING:  cpu time      0.0004: real time      0.0004
    OFIELD:  cpu time      0.0004: real time      0.0005

 VOLUME and BASIS-vectors are now :
 -----------------------------------------------------------------------------
  energy-cutoff  :      680.00
  volume of cell :      196.49
      direct lattice vectors                 reciprocal lattice vectors
     5.302919200  0.000000000 -2.364029390     0.188575379  0.038239427  0.000000000
    -1.053879568  5.197142179 -2.364029719     0.000000000  0.192413439  0.000000000
     0.000000000  0.000000000  7.129686600     0.062526975  0.076478848  0.140258620

  length of vectors
     5.805995780  5.805995650  7.129686600     0.192413429  0.192413439  0.171554998


 FORCES acting on ions
    electron-ion (+dipol)            ewald-force                    non-local-force                 convergence-correction
 -----------------------------------------------------------------------------------------------
   0.501E-02 0.681E-02 -.152E-02   -.721E-05 0.183E-04 -.323E-04   0.851E-18 -.151E-18 -.111E-17   -.476E-05 -.155E-04 -.214E-04
   0.569E-02 0.625E-02 -.153E-02   -.117E-04 0.185E-04 -.315E-04   -.316E-17 0.143E-17 -.134E-18   0.128E-04 0.977E-05 0.184E-04
   0.489E-02 0.521E-02 -.151E-02   -.132E-04 0.197E-04 -.336E-04   -.290E-18 -.642E-19 -.394E-18   -.490E-05 -.596E-05 -.746E-05
   0.414E-02 0.580E-02 -.151E-02   -.702E-05 0.196E-04 -.347E-04   0.788E-19 0.232E-18 -.397E-18   -.782E-05 -.204E-05 0.150E-04
   -.394E+01 -.331E-02 0.176E+01   0.229E+01 -.183E-04 -.102E+01   0.169E+01 -.624E-18 -.754E+00   0.491E-04 -.236E-05 -.229E-04
   0.394E+01 -.115E-02 -.176E+01   -.229E+01 -.197E-04 0.102E+01   -.169E+01 0.656E-19 0.754E+00   -.539E-04 -.837E-06 0.209E-04
   -.783E+00 0.386E+01 -.176E+01   0.456E+00 -.225E+01 0.102E+01   0.336E+00 -.166E+01 0.754E+00   0.159E-04 -.594E-04 0.249E-04
   0.780E+00 -.386E+01 0.176E+01   -.456E+00 0.225E+01 -.102E+01   -.336E+00 0.166E+01 -.754E+00   -.140E-04 0.633E-04 -.184E-04
 -----------------------------------------------------------------------------------------------
   0.123E-01 0.151E-01 -.665E-02   0.339E-14 -.178E-13 0.000E+00   0.222E-15 -.222E-15 -.111E-15   -.766E-05 -.130E-04 0.890E-05
 
 
 POSITION                                       TOTAL-FORCE (eV/Angst)
 -----------------------------------------------------------------------------------
      2.12452      2.59857     -2.36403         0.000000      0.000000      0.000000
      3.71372      1.29929      1.20081         0.000000      0.000000      0.000000
      0.00000      0.00000      0.00000         0.000000     -0.000000      0.000000
      0.53532      3.89786      1.20081         0.000000     -0.000000      0.000000
      1.43516      1.94893      0.07994         0.305420      0.000000     -0.136155
      3.87614      4.54750     -2.42517        -0.305420     -0.000000      0.136155
     -0.02726      3.40329      3.50370         0.060698     -0.299327      0.136155
      3.21404      0.49457      3.64478        -0.060698      0.299327     -0.136155
 -----------------------------------------------------------------------------------
    total drift:                                0.012290      0.015073     -0.006640


--------------------------------------------------------------------------------------------------------



  FREE ENERGIE OF THE ION-ELECTRON SYSTEM (eV)
  ---------------------------------------------------
  free  energy   TOTEN  =       -35.68712395 eV

  energy  without entropy=      -35.68712395  energy(sigma->0) =      -35.68712395
 


--------------------------------------------------------------------------------------------------------


    POTLOK:  cpu time      1.0177: real time      1.0207


--------------------------------------------------------------------------------------------------------


 writing wavefunctions
     LOOP+:  cpu time    767.7909: real time    770.1247
    4ORBIT:  cpu time      0.0000: real time      0.0000



 total charge

# of ion       s       p       d       tot
------------------------------------------
    1        0.829   0.657   9.924  11.411
    2        0.829   0.657   9.924  11.411
    3        0.336   0.323   9.376  10.035
    4        0.336   0.323   9.376  10.035
    5        1.457   2.423   0.039   3.919
    6        1.457   2.423   0.039   3.919
    7        1.457   2.423   0.039   3.919
    8        1.457   2.423   0.039   3.919
--------------------------------------------------
tot          8.159  11.652  38.756  58.567



 magnetization (x)

# of ion       s       p       d       tot
------------------------------------------
    1       -0.000   0.000  -0.000  -0.000
    2       -0.000   0.000  -0.000  -0.000
    3       -0.000  -0.000  -0.000  -0.000
    4       -0.000  -0.000  -0.000  -0.000
    5        0.000  -0.000   0.000  -0.000
    6        0.000  -0.000   0.000  -0.000
    7        0.000  -0.000   0.000  -0.000
    8        0.000  -0.000   0.000  -0.000
--------------------------------------------------
tot         -0.000  -0.000  -0.000  -0.000
 
 BZINTS: Fermi energy:    3.581749;   72.000000 electrons
         Band energy:-0.325996E+03;  BLOECHL correction:    0.000000

 total amount of memory used by VASP MPI-rank0    48464. kBytes
=======================================================================

   base      :      30000. kBytes
   nonl-proj :       6276. kBytes
   fftplans  :       1091. kBytes
   grid      :       2428. kBytes
   one-center:         31. kBytes
   HF        :         64. kBytes
   nonlr-proj:       1238. kBytes
   wavefun   :       1880. kBytes
   fock_wrk  :       5456. kBytes
 
  
  
 General timing and accounting informations for this job:
 ========================================================
  
                  Total CPU time used (sec):      786.352
                            User time (sec):      782.787
                          System time (sec):        3.566
                         Elapsed time (sec):      789.569
  
                   Maximum memory used (kb):      304164.
                   Average memory used (kb):          N/A
  
                          Minor page faults:        90857
                          Major page faults:            0
                 Voluntary context switches:         9301
