 vasp.6.4.2 20Jul23 (build Mar 15 2024 16:31:38) complex                        
  
 executed on             LinuxIFC date 2025.04.01  18:04:17
 running  120 mpi-ranks, on    3 nodes
 distrk:  each k-point on  120 cores,    1 groups
 distr:  one band on NCORE=  20 cores,    6 groups


--------------------------------------------------------------------------------------------------------


 INCAR:
   ALGO = Normal
   EDIFF = 1e-05
   ENAUG = 1360
   ENCUT = 680
   GGA = Pe
   HFSCREEN = 0.2
   ISMEAR = -5
   ISPIN = 2
   LAECHG = True
   LASPH = True
   LCHARG = True
   LDAU = False
   LELF = False
   LHFCALC = True
   LMAXMIX = 4
   LMIXTAU = True
   LORBIT = 11
   LREAL = False
   LVTOT = True
   LWAVE = False
   MAGMOM = 28*0.0
   NCORE = 20
   NELM = 200
   NSW = 0
   PREC = Accurate
   PRECFOCK = Accurate
   SIGMA = 0.2

 POTCAR:    PAW_PBE Rb_sv 06Sep2000               
 POTCAR:    PAW_PBE Al 04Jan2001                  
 POTCAR:    PAW_PBE O 08Apr2002                   
 WARNING: For LVTOT=.TRUE., VASP.5.x writes the TOTAL local potential to the
     file LOCPOT. If you want only the Hartree contributions, use LVHAR=.TRUE.
     instead. 

 POTCAR:    PAW_PBE Rb_sv 06Sep2000               
   VRHFIN =Rb: 4s4p5s                                                                               
   LEXCH  = PE                                                                                      
   EATOM  =   662.5034 eV,   48.6926 Ry                                                             
                                                                                                    
   TITEL  = PAW_PBE Rb_sv 06Sep2000                                                                 
   LULTRA =        F    use ultrasoft PP ?                                                          
   IUNSCR =        1    unscreen: 0-lin 1-nonlin 2-no                                               
   RPACOR =    2.200    partial core radius                                                         
   POMASS =   85.468; ZVAL   =    9.000    mass and valenz                                          
   RCORE  =    2.500    outmost cutoff radius                                                       
   RWIGS  =    4.570; RWIGS  =    2.418    wigner-seitz radius (au A)                               
   ENMAX  =  220.112; ENMIN  =  165.084 eV                                                          
   RCLOC  =    2.200    cutoff for local pot                                                        
   LCOR   =        T    correct aug charges                                                         
   LPAW   =        T    paw PP                                                                      
   EAUG   =  423.861                                                                                
   DEXC   =    0.000                                                                                
   RMAX   =    2.546    core radius for proj-oper                                                   
   RAUG   =    1.300    factor for augmentation sphere                                              
   RDEP   =    2.541    radius for radial grids                                                     
   RDEPT  =    2.044    core radius for aug-charge                                                  
                                                                                                    
   Atomic configuration                                                                             
   10 entries                                                                                       
     n  l   j            E        occ.                                                              
     1  0  0.50    -15031.5419   2.0000                                                             
     2  0  0.50     -2007.8842   2.0000                                                             
     2  1  1.50     -1779.8144   6.0000                                                             
     3  0  0.50      -297.9619   2.0000                                                             
     3  1  1.50      -224.8335   6.0000                                                             
     3  2  2.50      -103.9539  10.0000                                                             
     4  0  0.50       -31.8932   2.0000                                                             
     5  0  0.50        -2.2327   0.9990                                                             
     4  1  1.50       -15.9645   6.0000                                                             
     4  2  1.50        -0.0020   0.0010                                                             
   Description                                                                                      
     l       E           TYP  RCUT    TYP  RCUT                                                     
     0    -31.8932387     23  2.500                                                                 
     0     -2.2326525     23  2.500                                                                 
     1    -15.9644597     23  2.500                                                                 
     1    -17.3250423     23  2.500                                                                 
     2     -0.0020100     23  2.500                                                                 
  local pseudopotential read in
  partial core-charges read in
  partial kinetic energy density read in
  atomic valenz-charges read in
  non local Contribution for L=           0  read in
    real space projection operators read in
  non local Contribution for L=           0  read in
    real space projection operators read in
  non local Contribution for L=           1  read in
    real space projection operators read in
  non local Contribution for L=           1  read in
    real space projection operators read in
  non local Contribution for L=           2  read in
    real space projection operators read in
    PAW grid and wavefunctions read in
 
   number of l-projection  operators is LMAX  =           5
   number of lm-projection operators is LMMAX =          13
 
 POTCAR:    PAW_PBE Al 04Jan2001                  
   VRHFIN =Al: s2p1                                                                                 
   LEXCH  = PE                                                                                      
   EATOM  =    53.5387 eV,    3.9350 Ry                                                             
                                                                                                    
   TITEL  = PAW_PBE Al 04Jan2001                                                                    
   LULTRA =        F    use ultrasoft PP ?                                                          
   IUNSCR =        1    unscreen: 0-lin 1-nonlin 2-no                                               
   RPACOR =    1.500    partial core radius                                                         
   POMASS =   26.981; ZVAL   =    3.000    mass and valenz                                          
   RCORE  =    1.900    outmost cutoff radius                                                       
   RWIGS  =    2.650; RWIGS  =    1.402    wigner-seitz radius (au A)                               
   ENMAX  =  240.300; ENMIN  =  180.225 eV                                                          
   ICORE  =        2    local potential                                                             
   LCOR   =        T    correct aug charges                                                         
   LPAW   =        T    paw PP                                                                      
   EAUG   =  291.052                                                                                
   DEXC   =    0.000                                                                                
   RMAX   =    1.939    core radius for proj-oper                                                   
   RAUG   =    1.300    factor for augmentation sphere                                              
   RDEP   =    1.966    radius for radial grids                                                     
   RDEPT  =    1.856    core radius for aug-charge                                                  
                                                                                                    
   Atomic configuration                                                                             
    6 entries                                                                                       
     n  l   j            E        occ.                                                              
     1  0  0.50     -1511.1048   2.0000                                                             
     2  0  0.50      -108.1629   2.0000                                                             
     2  1  1.50       -69.6402   6.0000                                                             
     3  0  0.50        -7.7528   2.0000                                                             
     3  1  1.50        -2.7121   1.0000                                                             
     3  2  2.50        -2.7212   0.0000                                                             
   Description                                                                                      
     l       E           TYP  RCUT    TYP  RCUT                                                     
     0     -7.7528455     23  1.900                                                                 
     0     -3.3096929     23  1.900                                                                 
     1     -2.7120682     23  1.900                                                                 
     1     13.6058260     23  1.900                                                                 
     2     -2.7211652      7  1.900                                                                 
  local pseudopotential read in
  partial core-charges read in
  partial kinetic energy density read in
  atomic valenz-charges read in
  non local Contribution for L=           0  read in
    real space projection operators read in
  non local Contribution for L=           0  read in
    real space projection operators read in
  non local Contribution for L=           1  read in
    real space projection operators read in
  non local Contribution for L=           1  read in
    real space projection operators read in
    PAW grid and wavefunctions read in
 
   number of l-projection  operators is LMAX  =           4
   number of lm-projection operators is LMMAX =           8
 
 POTCAR:    PAW_PBE O 08Apr2002                   
   VRHFIN =O: s2p4                                                                                  
   LEXCH  = PE                                                                                      
   EATOM  =   432.3788 eV,   31.7789 Ry                                                             
                                                                                                    
   TITEL  = PAW_PBE O 08Apr2002                                                                     
   LULTRA =        F    use ultrasoft PP ?                                                          
   IUNSCR =        1    unscreen: 0-lin 1-nonlin 2-no                                               
   RPACOR =    1.200    partial core radius                                                         
   POMASS =   16.000; ZVAL   =    6.000    mass and valenz                                          
   RCORE  =    1.520    outmost cutoff radius                                                       
   RWIGS  =    1.550; RWIGS  =    0.820    wigner-seitz radius (au A)                               
   ENMAX  =  400.000; ENMIN  =  300.000 eV                                                          
   ICORE  =        2    local potential                                                             
   LCOR   =        T    correct aug charges                                                         
   LPAW   =        T    paw PP                                                                      
   EAUG   =  605.392                                                                                
   DEXC   =    0.000                                                                                
   RMAX   =    1.553    core radius for proj-oper                                                   
   RAUG   =    1.300    factor for augmentation sphere                                              
   RDEP   =    1.550    radius for radial grids                                                     
   RDEPT  =    1.329    core radius for aug-charge                                                  
                                                                                                    
   Atomic configuration                                                                             
    4 entries                                                                                       
     n  l   j            E        occ.                                                              
     1  0  0.50      -514.6923   2.0000                                                             
     2  0  0.50       -23.9615   2.0000                                                             
     2  1  0.50        -9.0305   4.0000                                                             
     3  2  1.50        -9.5241   0.0000                                                             
   Description                                                                                      
     l       E           TYP  RCUT    TYP  RCUT                                                     
     0    -23.9615318     23  1.200                                                                 
     0     -9.5240782     23  1.200                                                                 
     1     -9.0304911     23  1.520                                                                 
     1      8.1634956     23  1.520                                                                 
     2     -9.5240782      7  1.500                                                                 
  local pseudopotential read in
  partial core-charges read in
  partial kinetic energy density read in
  kinetic energy density of atom read in
  atomic valenz-charges read in
  non local Contribution for L=           0  read in
    real space projection operators read in
  non local Contribution for L=           0  read in
    real space projection operators read in
  non local Contribution for L=           1  read in
    real space projection operators read in
  non local Contribution for L=           1  read in
    real space projection operators read in
    PAW grid and wavefunctions read in
 
   number of l-projection  operators is LMAX  =           4
   number of lm-projection operators is LMMAX =           8
 
 -----------------------------------------------------------------------------
|                                                                             |
|               ----> ADVICE to this user running VASP <----                  |
|                                                                             |
|     You have a (more or less) 'large supercell' and for larger cells it     |
|     might be more efficient to use real-space projection operators.         |
|     Therefore, try LREAL= Auto in the INCAR file.                           |
|     Mind: For very accurate calculation, you might also keep the            |
|     reciprocal projection scheme (i.e. LREAL=.FALSE.).                      |
|                                                                             |
 -----------------------------------------------------------------------------

  PAW_PBE Rb_sv 06Sep2000               :
 energy of atom  1       EATOM= -662.5034
 kinetic energy error for atom=    0.0003 (will be added to EATOM!!)
  PAW_PBE Al 04Jan2001                  :
 energy of atom  2       EATOM=  -53.5387
 kinetic energy error for atom=    0.0001 (will be added to EATOM!!)
  PAW_PBE O 08Apr2002                   :
 energy of atom  3       EATOM= -432.3788
 kinetic energy error for atom=    0.0105 (will be added to EATOM!!)
 
 
 POSCAR: Rb12 Al4 O12
  positions in direct lattice
  No initial velocities read in
 exchange correlation table for  LEXCH =        8
   RHO(1)=    0.500       N(1)  =     2000
   RHO(2)=  100.500       N(2)  =     4000
 


--------------------------------------------------------------------------------------------------------


 ion  position               nearest neighbor table
   1  0.000  0.267  0.000-  21 2.81  24 2.81  26 2.94  27 2.94  17 3.30  18 3.30  13 3.31  14 3.31
                             5 3.46   5 3.46  12 3.51  11 3.51   4 3.63   4 3.63  19 3.86  20 3.86
   2  0.000  0.733  0.000-  22 2.81  23 2.81  28 2.94  25 2.94  17 3.30  18 3.30  13 3.31  14 3.31
                             6 3.46   6 3.46  11 3.51  12 3.51   3 3.63   3 3.63  19 3.86  20 3.86
   3  0.500  0.767  0.000-  25 2.81  28 2.81  22 2.94  23 2.94  19 3.30  20 3.30  15 3.31  16 3.31
                             7 3.46   7 3.46  10 3.51   9 3.51   2 3.63   2 3.63  17 3.86  18 3.86
   4  0.500  0.233  0.000-  26 2.81  27 2.81  24 2.94  21 2.94  19 3.30  20 3.30  15 3.31  16 3.31
                             8 3.46   8 3.46   9 3.51  10 3.51   1 3.63   1 3.63  17 3.86  18 3.86
   5  0.000  0.198  0.500-  26 2.80  27 2.80  21 2.95  24 2.95  17 3.29  18 3.29   9 3.46  10 3.46
                             1 3.46   1 3.46  14 3.66  13 3.66  11 3.76  12 3.76   8 3.80   8 3.80
   6  0.000  0.802  0.500-  25 2.80  28 2.80  22 2.95  23 2.95  17 3.29  18 3.29   9 3.46  10 3.46
                             2 3.46   2 3.46  14 3.66  13 3.66  12 3.76  11 3.76   7 3.80   7 3.80
   7  0.500  0.698  0.500-  22 2.80  23 2.80  25 2.95  28 2.95  19 3.29  20 3.29  11 3.46  12 3.46
                             3 3.46   3 3.46  16 3.66  15 3.66   9 3.76  10 3.76   6 3.80   6 3.80
   8  0.500  0.302  0.500-  21 2.80  24 2.80  26 2.95  27 2.95  19 3.29  20 3.29  11 3.46  12 3.46
                             4 3.46   4 3.46  16 3.66  15 3.66  10 3.76   9 3.76   5 3.80   5 3.80
   9  0.630  0.000  0.348-  18 2.69  23 2.88  24 2.88  21 2.93  22 2.93  10 3.10  14 3.35  13 3.38
                             6 3.46   5 3.46   4 3.51   3 3.51   7 3.76   8 3.76  13 4.00  14 4.34
  10  0.370  0.000  0.652-  17 2.69  21 2.88  22 2.88  23 2.93  24 2.93   9 3.10  13 3.35  14 3.38
                             5 3.46   6 3.46   3 3.51   4 3.51   8 3.76   7 3.76  14 4.00  13 4.34
  11  0.130  0.500  0.348-  20 2.69  27 2.88  28 2.88  25 2.93  26 2.93  12 3.10  16 3.35  15 3.38
                             8 3.46   7 3.46   2 3.51   1 3.51   5 3.76   6 3.76  15 4.00  16 4.34
  12  0.870  0.500  0.652-  19 2.69  25 2.88  26 2.88  27 2.93  28 2.93  11 3.10  15 3.35  16 3.38
                             7 3.46   8 3.46   1 3.51   2 3.51   6 3.76   5 3.76  16 4.00  15 4.34
  13  0.843  0.000  0.853-  21 1.77  22 1.77  17 1.84  18 1.84  14 2.63   2 3.31   1 3.31  10 3.35
                             9 3.38   6 3.66   5 3.66   3 3.91   4 3.91   9 4.00  10 4.34   7 4.55
  14  0.157  0.000  0.147-  23 1.77  24 1.77  18 1.84  17 1.84  13 2.63   2 3.31   1 3.31   9 3.35
                            10 3.38   5 3.66   6 3.66   4 3.91   3 3.91  10 4.00   9 4.34   7 4.55
  15  0.343  0.500  0.853-  25 1.77  26 1.77  19 1.84  20 1.84  16 2.63   4 3.31   3 3.31  12 3.35
                            11 3.38   8 3.66   7 3.66   1 3.91   2 3.91  11 4.00  12 4.34   5 4.55
  16  0.657  0.500  0.147-  27 1.77  28 1.77  20 1.84  19 1.84  15 2.63   4 3.31   3 3.31  11 3.35
                            12 3.38   7 3.66   8 3.66   2 3.91   1 3.91  12 4.00  11 4.34   5 4.55
  17  0.100  0.000  0.866-  13 1.84  14 1.84  10 2.69   6 3.29   5 3.29   2 3.30   1 3.30   4 3.86
                             3 3.86
  18  0.900  0.000  0.134-  14 1.84  13 1.84   9 2.69   6 3.29   5 3.29   2 3.30   1 3.30   4 3.86
                             3 3.86
  19  0.600  0.500  0.866-  15 1.84  16 1.84  12 2.69   8 3.29   7 3.29   4 3.30   3 3.30   2 3.86
                             1 3.86
  20  0.400  0.500  0.134-  16 1.84  15 1.84  11 2.69   8 3.29   7 3.29   4 3.30   3 3.30   2 3.86
                             1 3.86
  21  0.725  0.128  0.737-  13 1.77   8 2.80   1 2.81  10 2.88   9 2.93   4 2.94   5 2.95
  22  0.725  0.872  0.737-  13 1.77   7 2.80   2 2.81  10 2.88   9 2.93   3 2.94   6 2.95
  23  0.275  0.872  0.263-  14 1.77   7 2.80   2 2.81   9 2.88  10 2.93   3 2.94   6 2.95
  24  0.275  0.128  0.263-  14 1.77   8 2.80   1 2.81   9 2.88  10 2.93   4 2.94   5 2.95
  25  0.225  0.628  0.737-  15 1.77   6 2.80   3 2.81  12 2.88  11 2.93   2 2.94   7 2.95
  26  0.225  0.372  0.737-  15 1.77   5 2.80   4 2.81  12 2.88  11 2.93   1 2.94   8 2.95
  27  0.775  0.372  0.263-  16 1.77   5 2.80   4 2.81  11 2.88  12 2.93   1 2.94   8 2.95
  28  0.775  0.628  0.263-  16 1.77   6 2.80   3 2.81  11 2.88  12 2.93   2 2.94   7 2.95
 
  LATTYP: Found a simple monoclinic cell.
 ALAT       =     6.7512585294
 B/A-ratio  =     1.6836074604
 C/A-ratio  =     1.0693602023
 COS(beta)  =    -0.2428944534
  
  Lattice vectors:
  
 A1 = (   0.0005261186,   0.0000000000,   6.7512585089)
 A2 = (   0.0000000000, -11.3664692270,  -0.0000000000)
 A3 = (   7.0031853271,   0.0000000000,  -1.7541288661)


Analysis of symmetry for initial positions (statically):
=====================================================================
 Subroutine PRICEL returns following result:
 
  LATTYP: Found a base centered monoclinic cell.
 ALAT       =     7.2195271871
 B/A-ratio  =     1.5744063195
 C/A-ratio  =     0.9351385976
 COS(beta)  =    -0.2428944534
  
  Lattice vectors:
  
 A1 = (   3.5015926636,  -5.6832346135,  -0.8770644330)
 A2 = (   3.5015926636,   5.6832346135,  -0.8770644330)
 A3 = (   0.0005261186,   0.0000000000,   6.7512585089)
 
   2 primitive cells build up your supercell.
 

 Routine SETGRP: Setting up the symmetry group for a 
 simple monoclinic supercell.


 Subroutine GETGRP returns: Found  4 space group operations
 (whereof  4 operations were pure point group operations)
 out of a pool of  4 trial point group operations.


The static configuration has the point symmetry C_2h.


Analysis of symmetry for dynamics (positions and initial velocities):
=====================================================================
 Subroutine PRICEL returns following result:
 
  LATTYP: Found a base centered monoclinic cell.
 ALAT       =     7.2195271871
 B/A-ratio  =     1.5744063195
 C/A-ratio  =     0.9351385976
 COS(beta)  =    -0.2428944534
  
  Lattice vectors:
  
 A1 = (   3.5015926636,  -5.6832346135,  -0.8770644330)
 A2 = (   3.5015926636,   5.6832346135,  -0.8770644330)
 A3 = (   0.0005261186,   0.0000000000,   6.7512585089)
 
   2 primitive cells build up your supercell.
 

 Routine SETGRP: Setting up the symmetry group for a 
 simple monoclinic supercell.


 Subroutine GETGRP returns: Found  4 space group operations
 (whereof  4 operations were pure point group operations)
 out of a pool of  4 trial point group operations.


The dynamic configuration has the point symmetry C_2h.


Analysis of structural, dynamic, and magnetic symmetry:
=====================================================================
 Subroutine PRICEL returns following result:
 
  LATTYP: Found a base centered monoclinic cell.
 ALAT       =     7.2195271871
 B/A-ratio  =     1.5744063195
 C/A-ratio  =     0.9351385976
 COS(beta)  =    -0.2428944534
  
  Lattice vectors:
  
 A1 = (   3.5015926636,  -5.6832346135,  -0.8770644330)
 A2 = (   3.5015926636,   5.6832346135,  -0.8770644330)
 A3 = (   0.0005261186,   0.0000000000,   6.7512585089)
 
   2 primitive cells build up your supercell.
 

 Routine SETGRP: Setting up the symmetry group for a 
 simple monoclinic supercell.


 Subroutine GETGRP returns: Found  4 space group operations
 (whereof  4 operations were pure point group operations)
 out of a pool of  4 trial point group operations.


The overall configuration has the point symmetry C_2h.


 Subroutine INISYM returns: Found  4 space group operations
 (whereof  4 operations are pure point group operations),
 and found     2 'primitive' translations


----------------------------------------------------------------------------------------

                                     Primitive cell                                     

  volume of cell :     268.7104

  direct lattice vectors                    reciprocal lattice vectors
     3.501592664 -5.683234614 -0.877064433     0.142789379 -0.087978068 -0.000011127
     3.501592664  5.683234614 -0.877064433     0.142789379  0.087978068 -0.000011127
     0.000526119  0.000000000  6.751258509     0.037099893  0.000000000  0.148117641

  length of vectors
     6.732722248  6.732722248  6.751258529     0.167716866  0.167716866  0.152693279

  position of ions in fractional coordinates (direct lattice)
     0.732836413  0.267163587  0.000000000
     0.267163587  0.732836413  0.000000000
     0.801603265  0.198396735  0.500000000
     0.198396735  0.801603265  0.500000000
     0.629626841  0.629626841  0.347996074
     0.370373159  0.370373159  0.652003926
     0.842902805  0.842902805  0.853119890
     0.157097195  0.157097195  0.146880110
     0.100222994  0.100222994  0.865843910
     0.899777006  0.899777006  0.134156090
     0.597010126  0.852667903  0.736617142
     0.852667903  0.597010126  0.736617142
     0.402989874  0.147332097  0.263382858
     0.147332097  0.402989874  0.263382858

  ion indices of the primitive-cell ions
   primitive index   ion index
                 1           1
                 2           2
                 3           5
                 4           6
                 5          11
                 6          12
                 7          13
                 8          14
                 9          17
                10          18
                11          21
                12          26
                13          27
                14          24

----------------------------------------------------------------------------------------

 
 
 KPOINTS: pymatgen with grid density = 827 / numbe

Automatic generation of k-mesh.
 Grid dimensions read from file:
 generate k-points for:    3    2    3

 Generating k-lattice:

  Cartesian coordinates                     Fractional coordinates (reciprocal lattice)
     0.047596460  0.000000000 -0.000003709     0.333333333 -0.000000000  0.000000000
     0.000000000  0.043989034  0.000000000     0.000000000  0.500000000  0.000000000
     0.012366631 -0.000000000  0.049372547     0.000000000 -0.000000000  0.333333333

  Length of vectors
     0.047596460  0.043989034  0.050897760

  Shift w.r.t. Gamma in fractional coordinates (k-lattice)
     0.000000000  0.000000000  0.000000000

 TETIRR: Found     51 inequivalent tetrahedra from      108
 
 Subroutine IBZKPT returns following result:
 ===========================================
 
 Found     10 irreducible k-points:
 
 Following reciprocal coordinates:
            Coordinates               Weight
  0.000000  0.000000  0.000000      1.000000
  0.333333  0.000000 -0.000000      2.000000
  0.000000  0.500000  0.000000      1.000000
  0.333333  0.500000 -0.000000      2.000000
  0.000000  0.000000  0.333333      2.000000
  0.333333  0.000000  0.333333      2.000000
 -0.333333  0.000000  0.333333      2.000000
  0.000000  0.500000  0.333333      2.000000
  0.333333  0.500000  0.333333      2.000000
 -0.333333  0.500000  0.333333      2.000000
 
 Following cartesian coordinates:
            Coordinates               Weight
  0.000000  0.000000  0.000000      1.000000
  0.047596  0.000000 -0.000004      2.000000
  0.000000  0.043989  0.000000      1.000000
  0.047596  0.043989 -0.000004      2.000000
  0.012367 -0.000000  0.049373      2.000000
  0.059963  0.000000  0.049369      2.000000
 -0.035230 -0.000000  0.049376      2.000000
  0.012367  0.043989  0.049373      2.000000
  0.059963  0.043989  0.049369      2.000000
 -0.035230  0.043989  0.049376      2.000000
 
 
 Subroutine IBZKPT_HF returns following result:
 ==============================================
 
 Found     18 k-points in 1st BZ
 the following     18 k-points will be used (e.g. in the exchange kernel)
 Following reciprocal coordinates:   # in IRBZ
  0.000000  0.000000  0.000000    0.05555556   1 t-inv F
  0.333333  0.000000 -0.000000    0.05555556   2 t-inv F
  0.000000  0.500000  0.000000    0.05555556   3 t-inv F
  0.333333  0.500000 -0.000000    0.05555556   4 t-inv F
  0.000000  0.000000  0.333333    0.05555556   5 t-inv F
  0.333333  0.000000  0.333333    0.05555556   6 t-inv F
 -0.333333  0.000000  0.333333    0.05555556   7 t-inv F
  0.000000  0.500000  0.333333    0.05555556   8 t-inv F
  0.333333  0.500000  0.333333    0.05555556   9 t-inv F
 -0.333333  0.500000  0.333333    0.05555556  10 t-inv F
 -0.333333 -0.000000  0.000000    0.05555556   2 t-inv F
 -0.333333 -0.500000  0.000000    0.05555556   4 t-inv F
 -0.000000 -0.000000 -0.333333    0.05555556   5 t-inv F
 -0.333333 -0.000000 -0.333333    0.05555556   6 t-inv F
  0.333333 -0.000000 -0.333333    0.05555556   7 t-inv F
 -0.000000 -0.500000 -0.333333    0.05555556   8 t-inv F
 -0.333333 -0.500000 -0.333333    0.05555556   9 t-inv F
  0.333333 -0.500000 -0.333333    0.05555556  10 t-inv F


--------------------------------------------------------------------------------------------------------




 Dimension of arrays:
   k-points           NKPTS =     10   k-points in BZ     NKDIM =     18   number of bands    NBANDS=    120
   number of dos      NEDOS =    301   number of ions     NIONS =     28
   non local maximal  LDIM  =      5   non local SUM 2l+1 LMDIM =     13
   total plane-waves  NPLWV = 376320
   max r-space proj   IRMAX =      1   max aug-charges    IRDMAX=  33250
   dimension x,y,z NGX =    64 NGY =   98 NGZ =   60
   dimension x,y,z NGXF=   128 NGYF=  196 NGZF=  120
   support grid    NGXF=   128 NGYF=  196 NGZF=  120
   ions per type =              12   4  12
   NGX,Y,Z   is equivalent  to a cutoff of  14.74, 14.33, 14.77 a.u.
   NGXF,Y,Z  is equivalent  to a cutoff of  29.47, 28.67, 29.55 a.u.

 SYSTEM =  unknown system                          
 POSCAR =  Rb12 Al4 O12                            

 Startparameter for this run:
   NWRITE =      2    write-flag & timer
   PREC   = accura    normal or accurate (medium, high low for compatibility)
   ISTART =      0    job   : 0-new  1-cont  2-samecut
   ICHARG =      2    charge: 1-file 2-atom 10-const
   ISPIN  =      2    spin polarized calculation?
   LNONCOLLINEAR =      F non collinear calculations
   LSORBIT =      F    spin-orbit coupling
   INIWAV =      1    electr: 0-lowe 1-rand  2-diag
   LASPH  =      T    aspherical Exc in radial PAW
 Electronic Relaxation 1
   ENCUT  =  680.0 eV  49.98 Ry    7.07 a.u.  15.35 24.17 14.35*2*pi/ulx,y,z
   ENINI  =  680.0     initial cutoff
   ENAUG  = 1360.0 eV  augmentation charge cutoff
   NELM   =    200;   NELMIN=  2; NELMDL= -5     # of ELM steps 
   EDIFF  = 0.1E-04   stopping-criterion for ELM
   LREAL  =      F    real-space projection
   NLSPLINE    = F    spline interpolate recip. space projectors
   LCOMPAT=      F    compatible to vasp.4.4
   GGA_COMPAT  = T    GGA compatible to vasp.4.4-vasp.4.6
   LMAXPAW     = -100 max onsite density
   LMAXMIX     =    4 max onsite mixed and CHGCAR
   VOSKOWN=      0    Vosko Wilk Nusair interpolation
   ROPT   =    0.00000   0.00000   0.00000
 Ionic relaxation
   EDIFFG = 0.1E-03   stopping-criterion for IOM
   NSW    =      0    number of steps for IOM
   NBLOCK =      1;   KBLOCK =      1    inner block; outer block 
   IBRION =     -1    ionic relax: 0-MD 1-quasi-New 2-CG
   NFREE  =      0    steps in history (QN), initial steepest desc. (CG)
   ISIF   =      0    stress and relaxation
   IWAVPR =     10    prediction:  0-non 1-charg 2-wave 3-comb
   ISYM   =      3    0-nonsym 1-usesym 2-fastsym
   LCORR  =      T    Harris-Foulkes like correction to forces

   POTIM  = 0.5000    time-step for ionic-motion
   TEIN   =    0.0    initial temperature
   TEBEG  =    0.0;   TEEND  =   0.0 temperature during run
   SMASS  =  -3.00    Nose mass-parameter (am)
   estimated Nose-frequenzy (Omega)   =  0.10E-29 period in steps = 0.13E+47 mass=  -0.119E-26a.u.
   SCALEE = 1.0000    scale energy and forces
   NPACO  =    256;   APACO  = 10.0  distance and # of slots for P.C.
   PSTRESS=    0.0 pullay stress

  Mass of Ions in am
   POMASS =  85.47 26.98 16.00
  Ionic Valenz
   ZVAL   =   9.00  3.00  6.00
  Atomic Wigner-Seitz radii
   RWIGS  =  -1.00 -1.00 -1.00
  virtual crystal weights 
   VCA    =   1.00  1.00  1.00
   NELECT =     192.0000    total number of electrons
   NUPDOWN=      -1.0000    fix difference up-down

 DOS related values:
   EMIN   =  10.00;   EMAX   =-10.00  energy-range for DOS
   EFERMI =   0.00;   METHOD = LEGACY      
   ISMEAR =    -5;   SIGMA  =   0.20  broadening in eV -4-tet -1-fermi 0-gaus

 Electronic relaxation 2 (details)
   IALGO  =     38    algorithm
   LDIAG  =      T    sub-space diagonalisation (order eigenvalues)
   LSUBROT=      F    optimize rotation matrix (better conditioning)
   TURBO    =      0    0=normal 1=particle mesh
   IRESTART =      0    0=no restart 2=restart with 2 vectors
   NREBOOT  =      0    no. of reboots
   NMIN     =      0    reboot dimension
   EREF     =   0.00    reference energy to select bands
   IMIX   =      1    mixing-type and parameters
     AMIX     =   0.40;   BMIX     =  1.00
     AMIX_MAG =   1.60;   BMIX_MAG =  1.00
     AMIN     =   0.10
     WC   =   100.;   INIMIX=   1;  MIXPRE=   1;  MAXMIX= -45

 Intra band minimization:
   WEIMIN = 0.0000     energy-eigenvalue tresh-hold
   EBREAK =  0.21E-07  absolut break condition
   DEPER  =   0.30     relativ break condition  

   TIME   =   0.40     timestep for ELM

  volume/ion in A,a.u.               =      19.19       129.52
  Fermi-wavevector in a.u.,A,eV,Ry     =   1.161637  2.195176 18.359709  1.349401
  Thomas-Fermi vector in A             =   2.298207
 
 Write flags
   LWAVE        =      F    write WAVECAR
   LDOWNSAMPLE  =      F    k-point downsampling of WAVECAR
   LCHARG       =      T    write CHGCAR
   LVTOT        =      T    write LOCPOT, total local potential
   LVHAR        =      F    write LOCPOT, Hartree potential only
   LELF         =      F    write electronic localiz. function (ELF)
   LORBIT       =     11    0 simple, 1 ext, 2 COOP (PROOUT), +10 PAW based schemes


 Dipole corrections
   LMONO  =      F    monopole corrections only (constant potential shift)
   LDIPOL =      F    correct potential (dipole corrections)
   IDIPOL =      0    1-x, 2-y, 3-z, 4-all directions 
   EPSILON=  1.0000000 bulk dielectric constant

 Exchange correlation treatment:
   GGA     =    PE    GGA type
   LEXCH   =     8    internal setting for exchange type
   LIBXC   =     F    Libxc                    
   VOSKOWN =     0    Vosko Wilk Nusair interpolation
   EXXOEP  =     0    0=HF, 1=EXX-LHF (local Hartree Fock) 2=EXX OEP
   LHFCALC =     T    Hartree Fock is set to
   LSYMGRAD=     F    symmetrize gradient (conserves proper symmetry)
   PRECFOCK=accur.    Normal, Fast or Accurate (Low or Medium for compatibility)
   LRHFCALC=     F    long range Hartree Fock
   LRSCOR  =     F    long range correlation only (use DFT for short range part)
   LTHOMAS =     F    Thomas Fermi screening in HF
   LMODELHF=     F    short range full HF, long range fraction AEXX
   FOCKCORR=     1    mode to apply convergence corrections
   LFOCKACE=     T    use Adeptively-Compressed-Exchange operator
   ENCUT4O =  -1.0   cutoff for four orbital integrals eV
   LMAXFOCK=     4    L truncation for augmentation on plane wave grid
   LMAXFOCKAE=  -1    L truncation for all-electron charge restoration on plane wave grid
   NMAXFOCKAE=   1    number of basis functions for all-electron charge restoration
   LFOCKAEDFT=     F  apply the AE augmentation even for DFT
   NKREDX  =     1    reduce k-point grid by
   NKREDY  =     1    reduce k-point grid by
   NKREDZ  =     1    reduce k-point grid by
   SHIFTRED=     F    shift reduced grid of Gamma
   HFKIDENT=     F    idential grid for each k-point
   ODDONLY =     F    use only odd q-grid points
   EVENONLY=     F    use only even q-grid points
   HFALPHA =   -1.0000 decay constant for conv. correction
   MCALPHA =    0.0000 extent of test-charge in conv. correction in multipole expansion
   AEXX    =    0.2500 exact exchange contribution
   HFSCREEN=    0.2000 screening length (either q_TF or 0.3 A-1)
   HFSCREENC=   0.2000 screening length for correlation (either q_TF or 0.3 A-1)
   HFRCUT  =    0.0000 spherical cutoff for potential kernel
   ALDAX   =    0.7500 LDA exchange part
   AGGAX   =    0.7500 GGA exchange part
   ALDAC   =    1.0000 LDA correlation
   AGGAC   =    1.0000 GGA correlation
   ENCUTFOCK=  -1.0 apply spherical cutoff to Coloumb kernel
   NBANDSGWLOW=     1    first orbital included in HF term
   NBLOCK_FOCK=    64    blocking factor in FOCK_ACC

 Linear response parameters
   LEPSILON=     F    determine dielectric tensor
   LRPA    =     F    only Hartree local field effects (RPA)
   LNABLA  =     F    use nabla operator in PAW spheres
   LVEL    =     F    velocity operator in full k-point grid
   CSHIFT  =0.1000    complex shift for real part using Kramers Kronig
   OMEGAMAX=  -1.0    maximum frequency
   DEG_THRESHOLD= 0.2000000E-02 threshold for treating states as degnerate
   RTIME   =   -0.100 relaxation time in fs
  (WPLASMAI=    0.000 imaginary part of plasma frequency in eV, 0.658/RTIME)
   DFIELD  = 0.0000000 0.0000000 0.0000000 field for delta impulse in time
 
  Optional k-point grid parameters
   LKPOINTS_OPT  =     F    use optional k-point grid
   KPOINTS_OPT_MODE=     1    mode for optional k-point grid
 
 Orbital magnetization related:
   ORBITALMAG=     F  switch on orbital magnetization
   LCHIMAG   =     F  perturbation theory with respect to B field
   DQ        =  0.001000  dq finite difference perturbation B field
   LLRAUG    =     F  two centre corrections for induced B field
   LBONE     =     F  B-component reconstruction in AE one-centre
   LVGVCALC  =     T  calculate vGv susceptibility
   LVGVAPPL  =     F  apply vGv susceptibility instead of pGv for G=0

 Random number generation:
   RANDOM_GENERATOR = DEFAULT
   PCG_SEED         = not used


--------------------------------------------------------------------------------------------------------


 Static calculation
 charge density and potential will be updated during run
 spin polarized calculation
 Variant of blocked Davidson
 Davidson routine will perform the subspace rotation
 perform sub-space diagonalisation
    after iterative eigenvector-optimisation
 Kerker-like  mixing scheme
 using additional bands           24
 reciprocal scheme for non local part
 use partial core corrections
 calculate Harris-corrections to forces 
   (improved forces if not selfconsistent)
 use gradient corrections 
 use of overlap-Matrix (Vanderbilt PP)
 Fermi weights with tetrahedron method with Bloechl corrections


--------------------------------------------------------------------------------------------------------


  energy-cutoff  :      680.00
  volume of cell :      537.42
      direct lattice vectors                 reciprocal lattice vectors
     7.003185327  0.000000000 -1.754128866     0.142789379  0.000000000 -0.000011127
    -0.000000000 11.366469227  0.000000000     0.000000000  0.087978068  0.000000000
     0.000526119  0.000000000  6.751258509     0.037099893 -0.000000000  0.148117641

  length of vectors
     7.219527187 11.366469227  6.751258529     0.142789379  0.087978068  0.152693279


 
 k-points in units of 2pi/SCALE and weight: pymatgen with grid density = 827 / numbe
   0.00000000  0.00000000  0.00000000       0.056
   0.04759646  0.00000000 -0.00000371       0.111
   0.00000000  0.04398903  0.00000000       0.056
   0.04759646  0.04398903 -0.00000371       0.111
   0.01236663 -0.00000000  0.04937255       0.111
   0.05996309  0.00000000  0.04936884       0.111
  -0.03522983 -0.00000000  0.04937626       0.111
   0.01236663  0.04398903  0.04937255       0.111
   0.05996309  0.04398903  0.04936884       0.111
  -0.03522983  0.04398903  0.04937626       0.111
 
 k-points in reciprocal lattice and weights: pymatgen with grid density = 827 / numbe
   0.00000000  0.00000000  0.00000000       0.056
   0.33333333  0.00000000 -0.00000000       0.111
   0.00000000  0.50000000  0.00000000       0.056
   0.33333333  0.50000000 -0.00000000       0.111
   0.00000000  0.00000000  0.33333333       0.111
   0.33333333  0.00000000  0.33333333       0.111
  -0.33333333  0.00000000  0.33333333       0.111
   0.00000000  0.50000000  0.33333333       0.111
   0.33333333  0.50000000  0.33333333       0.111
  -0.33333333  0.50000000  0.33333333       0.111
 
 position of ions in fractional coordinates (direct lattice) 
   0.00000000  0.26716359  0.00000000
   0.00000000  0.73283641  0.00000000
   0.50000000  0.76716359  0.00000000
   0.50000000  0.23283641  0.00000000
   0.00000000  0.19839673  0.50000000
   0.00000000  0.80160327  0.50000000
   0.50000000  0.69839673  0.50000000
   0.50000000  0.30160327  0.50000000
   0.62962684  0.00000000  0.34799607
   0.37037316  0.00000000  0.65200393
   0.12962684  0.50000000  0.34799607
   0.87037316  0.50000000  0.65200393
   0.84290280  0.00000000  0.85311989
   0.15709720  0.00000000  0.14688011
   0.34290280  0.50000000  0.85311989
   0.65709720  0.50000000  0.14688011
   0.10022299  0.00000000  0.86584391
   0.89977701  0.00000000  0.13415609
   0.60022299  0.50000000  0.86584391
   0.39977701  0.50000000  0.13415609
   0.72483901  0.12782889  0.73661714
   0.72483901  0.87217111  0.73661714
   0.27516099  0.87217111  0.26338286
   0.27516099  0.12782889  0.26338286
   0.22483901  0.62782889  0.73661714
   0.22483901  0.37217111  0.73661714
   0.77516099  0.37217111  0.26338286
   0.77516099  0.62782889  0.26338286
 
 position of ions in cartesian coordinates  (Angst):
  -0.00000000  3.03670669  0.00000000
  -0.00000000  8.32976254  0.00000000
   3.50159266  8.71994130 -0.87706443
   3.50159266  2.64652793 -0.87706443
   0.00026306  2.25507038  3.37562925
   0.00026306  9.11139885  3.37562925
   3.50185572  7.93830499  2.49856482
   3.50185572  3.42816424  2.49856482
   4.40957654  0.00000000  1.24496484
   2.59413490  0.00000000  3.75216480
   0.90798388  5.68323461  2.12202927
   6.09572757  5.68323461  2.87510037
   5.90345340  0.00000000  4.28107277
   1.10025805  0.00000000  0.71605687
   2.40186073  5.68323461  5.15813721
   4.60185071  5.68323461 -0.16100756
   0.70233573  0.00000000  5.66973202
   6.30137571  0.00000000 -0.67260238
   4.20392840  5.68323461  4.79266759
   2.79978305  5.68323461  0.20446205
   5.07656950  1.45296313  3.70163171
   5.07656950  9.91350610  3.70163171
   1.92714194  9.91350610  1.29549793
   1.92714194  1.45296313  1.29549793
   1.57497684  7.13619774  4.57869614
   1.57497684  4.23027149  4.57869614
   5.42873461  4.23027149  0.41843350
   5.42873461  7.13619774  0.41843350
 


--------------------------------------------------------------------------------------------------------


 k-point   1 :   0.0000 0.0000 0.0000  plane waves:   21643
 k-point   2 :   0.3333 0.0000-0.0000  plane waves:   21633
 k-point   3 :   0.0000 0.5000 0.0000  plane waves:   21672
 k-point   4 :   0.3333 0.5000-0.0000  plane waves:   21648
 k-point   5 :   0.0000 0.0000 0.3333  plane waves:   21633
 k-point   6 :   0.3333 0.0000 0.3333  plane waves:   21623
 k-point   7 :  -0.3333 0.0000 0.3333  plane waves:   21626
 k-point   8 :   0.0000 0.5000 0.3333  plane waves:   21618
 k-point   9 :   0.3333 0.5000 0.3333  plane waves:   21638
 k-point  10 :  -0.3333 0.5000 0.3333  plane waves:   21638

 maximum and minimum number of plane-waves per node :      1116     1048

 maximum number of plane-waves:     21672
 maximum index in each direction: 
   IXMAX=   15   IYMAX=   24   IZMAX=   14
   IXMIN=  -15   IYMIN=  -24   IZMIN=  -14


 parallel 3D FFT for wavefunctions:
    minimum data exchange during FFTs selected (reduces bandwidth)
 parallel 3D FFT for charge:
    minimum data exchange during FFTs selected (reduces bandwidth)

 
 Radii for the augmentation spheres in the non-local exchange
 for species   1 augmentation radius   1.387 (default was   1.110)
       energy cutoff for augmentation   2720.0
 for species   2 augmentation radius   1.301 (default was   1.041)
       energy cutoff for augmentation   2720.0
 for species   3 augmentation radius   0.902 (default was   0.722)
       energy cutoff for augmentation   2720.0

 real space projection operators:
  total allocation   :      21985.78 KBytes
  max/ min on nodes  :       1529.88        929.45

 Maximum index for augmentation-charges in exchange          883
  SETUP_FOCK is finished

 total amount of memory used by VASP MPI-rank0    56174. kBytes
=======================================================================

   base      :      30000. kBytes
   nonl-proj :       4024. kBytes
   fftplans  :       2852. kBytes
   grid      :       6090. kBytes
   one-center:         32. kBytes
   HF        :         67. kBytes
   nonlr-proj:       5737. kBytes
   wavefun   :       7372. kBytes
 
     INWAV:  cpu time      0.0001: real time      0.0005
 initial charge density was supplied:
 charge density of overlapping atoms calculated
 number of electron     192.0000000 magnetization       0.0000000
 keeping initial charge density in first step


--------------------------------------------------------------------------------------------------------


 Maximum index for augmentation-charges         2195 (set IRDMAX)


--------------------------------------------------------------------------------------------------------


 First call to EWALD:  gamma=   0.218
 Maximum number of real-space cells 3x 2x 3
 Maximum number of reciprocal cells 2x 4x 2

    FEWALD:  cpu time      0.0035: real time      0.0036


--------------------------------------- Ionic step        1  -------------------------------------------




--------------------------------------- Iteration      1(   1)  ---------------------------------------


    POTLOK:  cpu time      0.0691: real time      0.0713
    SETDIJ:  cpu time      0.3824: real time      0.3837
     EDDAV:  cpu time      2.4097: real time      2.4212
 BZINTS: Fermi energy:   13.756822;  192.000000 electrons
         Band energy:-0.347866E+03;  BLOECHL correction:   -0.059944
       DOS:  cpu time      0.0219: real time      0.0220
    --------------------------------------------
      LOOP:  cpu time      2.8830: real time      2.8983

 eigenvalue-minimisations  :  4800
 total energy-change (2. order) :-0.7071163E+04  (-0.1094154E+05)
 number of electron     192.0000000 magnetization       0.0000000
 augmentation part      192.0000000 magnetization       0.0000000

 Free energy of the ion-electron system (eV)
  ---------------------------------------------------
  alpha Z        PSCENC =       842.13085518
  Ewald energy   TEWEN  =    -10379.33692041
  -Hartree energ DENC   =     -2861.04589952
  -exchange      EXHF   =         0.00000000
  -V(xc)+E(xc)   XCENC  =       579.48855573
  PAW double counting   =     10484.85419060   -18696.92131944
  entropy T*S    EENTRO =         0.00000000
  eigenvalues    EBANDS =      -347.86617210
  atomic energy  EATOM  =     13307.53328571
  Solvation  Ediel_sol  =         0.00000000
  ---------------------------------------------------
  free energy    TOTEN  =     -7071.16342425 eV

  energy without entropy =    -7071.16342425  energy(sigma->0) =    -7071.16342425
  exchange ACFDT corr.  =         0.00000000  see jH, gK, PRB 81, 115126


--------------------------------------------------------------------------------------------------------




--------------------------------------- Iteration      1(   2)  ---------------------------------------


     EDDAV:  cpu time      2.8718: real time      2.8808
 BZINTS: Fermi energy:   -1.451975;  192.000000 electrons
         Band energy:-0.189721E+04;  BLOECHL correction:    0.000000
       DOS:  cpu time      0.0071: real time      0.0071
    --------------------------------------------
      LOOP:  cpu time      2.8789: real time      2.8879

 eigenvalue-minimisations  :  6444
 total energy-change (2. order) :-0.1549342E+04  (-0.1505049E+04)
 number of electron     192.0000000 magnetization       0.0000000
 augmentation part      192.0000000 magnetization       0.0000000

 Free energy of the ion-electron system (eV)
  ---------------------------------------------------
  alpha Z        PSCENC =       842.13085518
  Ewald energy   TEWEN  =    -10379.33692041
  -Hartree energ DENC   =     -2861.04589952
  -exchange      EXHF   =         0.00000000
  -V(xc)+E(xc)   XCENC  =       579.48855573
  PAW double counting   =     10484.85419060   -18696.92131944
  entropy T*S    EENTRO =         0.00000000
  eigenvalues    EBANDS =     -1897.20810147
  atomic energy  EATOM  =     13307.53328571
  Solvation  Ediel_sol  =         0.00000000
  ---------------------------------------------------
  free energy    TOTEN  =     -8620.50535362 eV

  energy without entropy =    -8620.50535362  energy(sigma->0) =    -8620.50535362
  exchange ACFDT corr.  =         0.00000000  see jH, gK, PRB 81, 115126


--------------------------------------------------------------------------------------------------------




--------------------------------------- Iteration      1(   3)  ---------------------------------------


     EDDAV:  cpu time      2.5641: real time      2.5912
 BZINTS: Fermi energy:   -3.420348;  192.000000 electrons
         Band energy:-0.200576E+04;  BLOECHL correction:    0.000000
       DOS:  cpu time      0.0057: real time      0.0057
    --------------------------------------------
      LOOP:  cpu time      2.5698: real time      2.5968

 eigenvalue-minimisations  :  5748
 total energy-change (2. order) :-0.1085502E+03  (-0.1080512E+03)
 number of electron     192.0000000 magnetization       0.0000000
 augmentation part      192.0000000 magnetization       0.0000000

 Free energy of the ion-electron system (eV)
  ---------------------------------------------------
  alpha Z        PSCENC =       842.13085518
  Ewald energy   TEWEN  =    -10379.33692041
  -Hartree energ DENC   =     -2861.04589952
  -exchange      EXHF   =         0.00000000
  -V(xc)+E(xc)   XCENC  =       579.48855573
  PAW double counting   =     10484.85419060   -18696.92131944
  entropy T*S    EENTRO =         0.00000000
  eigenvalues    EBANDS =     -2005.75832020
  atomic energy  EATOM  =     13307.53328571
  Solvation  Ediel_sol  =         0.00000000
  ---------------------------------------------------
  free energy    TOTEN  =     -8729.05557235 eV

  energy without entropy =    -8729.05557235  energy(sigma->0) =    -8729.05557235
  exchange ACFDT corr.  =         0.00000000  see jH, gK, PRB 81, 115126


--------------------------------------------------------------------------------------------------------




--------------------------------------- Iteration      1(   4)  ---------------------------------------


     EDDAV:  cpu time      3.1231: real time      3.1490
 BZINTS: Fermi energy:   -3.401699;  192.000000 electrons
         Band energy:-0.201024E+04;  BLOECHL correction:    0.000000
       DOS:  cpu time      0.0063: real time      0.0063
    --------------------------------------------
      LOOP:  cpu time      3.1294: real time      3.1553

 eigenvalue-minimisations  :  7524
 total energy-change (2. order) :-0.4479471E+01  (-0.4472228E+01)
 number of electron     192.0000000 magnetization       0.0000000
 augmentation part      192.0000000 magnetization       0.0000000

 Free energy of the ion-electron system (eV)
  ---------------------------------------------------
  alpha Z        PSCENC =       842.13085518
  Ewald energy   TEWEN  =    -10379.33692041
  -Hartree energ DENC   =     -2861.04589952
  -exchange      EXHF   =         0.00000000
  -V(xc)+E(xc)   XCENC  =       579.48855573
  PAW double counting   =     10484.85419060   -18696.92131944
  entropy T*S    EENTRO =         0.00000000
  eigenvalues    EBANDS =     -2010.23779071
  atomic energy  EATOM  =     13307.53328571
  Solvation  Ediel_sol  =         0.00000000
  ---------------------------------------------------
  free energy    TOTEN  =     -8733.53504286 eV

  energy without entropy =    -8733.53504286  energy(sigma->0) =    -8733.53504286
  exchange ACFDT corr.  =         0.00000000  see jH, gK, PRB 81, 115126


--------------------------------------------------------------------------------------------------------




--------------------------------------- Iteration      1(   5)  ---------------------------------------


    POTLOK:  cpu time      0.1319: real time      0.1518
    SETDIJ:  cpu time      0.9148: real time      0.9171
     EDDAV:  cpu time    966.9765: real time    969.4650
 BZINTS: Fermi energy:   -5.003257;  192.000000 electrons
         Band energy:-0.224882E+04;  BLOECHL correction:    0.000000
       DOS:  cpu time      0.0064: real time      0.0066
    CHARGE:  cpu time      0.2396: real time      0.2403
    MIXING:  cpu time      0.0008: real time      0.0008
    --------------------------------------------
      LOOP:  cpu time    968.2700: real time    970.7816

 eigenvalue-minimisations  :  5508
 total energy-change (2. order) : 0.8523419E+04  (-0.3172129E+01)
 number of electron     192.0000003 magnetization      -0.0000000
 augmentation part        8.8574457 magnetization      -0.0048049

 Free energy of the ion-electron system (eV)
  ---------------------------------------------------
  alpha Z        PSCENC =       842.13085518
  Ewald energy   TEWEN  =    -10379.33692041
  -Hartree energ DENC   =     -2861.04589952
  -exchange      EXHF   =       535.36478038
  -V(xc)+E(xc)   XCENC  =       442.82799802
  PAW double counting   =     10611.94327515   -10460.71328084
  entropy T*S    EENTRO =         0.00000000
  eigenvalues    EBANDS =     -2248.82019257
  atomic energy  EATOM  =     13307.53328571
  Solvation  Ediel_sol  =         0.00000000
  ---------------------------------------------------
  free energy    TOTEN  =      -210.11609890 eV

  energy without entropy =     -210.11609890  energy(sigma->0) =     -210.11609890
  exchange ACFDT corr.  =         0.00000000  see jH, gK, PRB 81, 115126


--------------------------------------------------------------------------------------------------------




--------------------------------------- Iteration      1(   6)  ---------------------------------------


    POTLOK:  cpu time      0.1358: real time      0.1500
    SETDIJ:  cpu time      0.9320: real time      0.9343
     EDDAV:  cpu time    970.1320: real time    972.6026
 BZINTS: Fermi energy:   -0.685156;  192.000000 electrons
         Band energy:-0.191399E+04;  BLOECHL correction:    0.000000
       DOS:  cpu time      0.0055: real time      0.0057
    CHARGE:  cpu time      0.2237: real time      0.2242
    MIXING:  cpu time      0.0006: real time      0.0006
    --------------------------------------------
      LOOP:  cpu time    971.4297: real time    973.9176

 eigenvalue-minimisations  :  6780
 total energy-change (2. order) : 0.4570526E+02  (-0.1408719E+02)
 number of electron     192.0000004 magnetization      -0.0000000
 augmentation part        7.0122630 magnetization      -0.0025680

 Free energy of the ion-electron system (eV)
  ---------------------------------------------------
  alpha Z        PSCENC =       842.13085518
  Ewald energy   TEWEN  =    -10379.33692041
  -Hartree energ DENC   =     -3153.92161667
  -exchange      EXHF   =       533.23551438
  -V(xc)+E(xc)   XCENC  =       456.79684916
  PAW double counting   =     13063.65083517   -12920.50815083
  entropy T*S    EENTRO =         0.00000000
  eigenvalues    EBANDS =     -1913.99148717
  atomic energy  EATOM  =     13307.53328571
  Solvation  Ediel_sol  =         0.00000000
  ---------------------------------------------------
  free energy    TOTEN  =      -164.41083547 eV

  energy without entropy =     -164.41083547  energy(sigma->0) =     -164.41083547
  exchange ACFDT corr.  =         0.00000000  see jH, gK, PRB 81, 115126


--------------------------------------------------------------------------------------------------------




--------------------------------------- Iteration      1(   7)  ---------------------------------------


    POTLOK:  cpu time      0.1828: real time      0.1967
    SETDIJ:  cpu time      0.9807: real time      0.9832
     EDDAV:  cpu time    973.4692: real time    975.9731
 BZINTS: Fermi energy:    0.415562;  192.000000 electrons
         Band energy:-0.185162E+04;  BLOECHL correction:    0.000000
       DOS:  cpu time      0.0072: real time      0.0073
    CHARGE:  cpu time      0.2054: real time      0.2061
    MIXING:  cpu time      0.0004: real time      0.0004
    --------------------------------------------
      LOOP:  cpu time    974.8458: real time    977.3669

 eigenvalue-minimisations  :  5520
 total energy-change (2. order) :-0.4981204E+01  (-0.4285751E+01)
 number of electron     192.0000005 magnetization      -0.0000000
 augmentation part        5.9953817 magnetization      -0.0026235

 Free energy of the ion-electron system (eV)
  ---------------------------------------------------
  alpha Z        PSCENC =       842.13085518
  Ewald energy   TEWEN  =    -10379.33692041
  -Hartree energ DENC   =     -3194.43901566
  -exchange      EXHF   =       506.76020422
  -V(xc)+E(xc)   XCENC  =       458.30436039
  PAW double counting   =     15587.01450206   -15445.73679114
  entropy T*S    EENTRO =         0.00000000
  eigenvalues    EBANDS =     -1851.62252031
  atomic energy  EATOM  =     13307.53328571
  Solvation  Ediel_sol  =         0.00000000
  ---------------------------------------------------
  free energy    TOTEN  =      -169.39203995 eV

  energy without entropy =     -169.39203995  energy(sigma->0) =     -169.39203995
  exchange ACFDT corr.  =         0.00000000  see jH, gK, PRB 81, 115126


--------------------------------------------------------------------------------------------------------




--------------------------------------- Iteration      1(   8)  ---------------------------------------


    POTLOK:  cpu time      0.1409: real time      0.1556
    SETDIJ:  cpu time      0.9299: real time      0.9323
     EDDAV:  cpu time    976.6116: real time    981.5560
 BZINTS: Fermi energy:    0.141315;  192.000000 electrons
         Band energy:-0.188512E+04;  BLOECHL correction:    0.000000
       DOS:  cpu time      0.0118: real time      0.0122
    CHARGE:  cpu time      0.2282: real time      0.4443
    MIXING:  cpu time      0.0018: real time      0.0018
    --------------------------------------------
      LOOP:  cpu time    977.9243: real time    983.1022

 eigenvalue-minimisations  :  5724
 total energy-change (2. order) : 0.1592034E+01  (-0.4791072E+00)
 number of electron     192.0000006 magnetization       0.0000000
 augmentation part        6.0874022 magnetization      -0.0004736

 Free energy of the ion-electron system (eV)
  ---------------------------------------------------
  alpha Z        PSCENC =       842.13085518
  Ewald energy   TEWEN  =    -10379.33692041
  -Hartree energ DENC   =     -3144.21737562
  -exchange      EXHF   =       494.14890865
  -V(xc)+E(xc)   XCENC  =       455.60413891
  PAW double counting   =     17595.53728830   -17454.07881697
  entropy T*S    EENTRO =         0.00000000
  eigenvalues    EBANDS =     -1885.12136983
  atomic energy  EATOM  =     13307.53328571
  Solvation  Ediel_sol  =         0.00000000
  ---------------------------------------------------
  free energy    TOTEN  =      -167.80000607 eV

  energy without entropy =     -167.80000607  energy(sigma->0) =     -167.80000607
  exchange ACFDT corr.  =         0.00000000  see jH, gK, PRB 81, 115126


--------------------------------------------------------------------------------------------------------




--------------------------------------- Iteration      1(   9)  ---------------------------------------


    POTLOK:  cpu time      0.1792: real time      0.2173
    SETDIJ:  cpu time      1.0026: real time      1.0053
     EDDAV:  cpu time    978.2386: real time    981.4669
 BZINTS: Fermi energy:   -0.024595;  192.000000 electrons
         Band energy:-0.189706E+04;  BLOECHL correction:    0.000000
       DOS:  cpu time      0.0058: real time      0.0061
    CHARGE:  cpu time      0.2039: real time      0.2045
    MIXING:  cpu time      0.0004: real time      0.0004
    --------------------------------------------
      LOOP:  cpu time    979.6305: real time    982.9005

 eigenvalue-minimisations  :  5700
 total energy-change (2. order) : 0.1678732E+00  (-0.1744821E+00)
 number of electron     192.0000006 magnetization      -0.0000000
 augmentation part        6.2196921 magnetization      -0.0002255

 Free energy of the ion-electron system (eV)
  ---------------------------------------------------
  alpha Z        PSCENC =       842.13085518
  Ewald energy   TEWEN  =    -10379.33692041
  -Hartree energ DENC   =     -3134.49053323
  -exchange      EXHF   =       497.04805862
  -V(xc)+E(xc)   XCENC  =       455.01142525
  PAW double counting   =     18817.45705298   -18675.92617608
  entropy T*S    EENTRO =         0.00000000
  eigenvalues    EBANDS =     -1897.05918086
  atomic energy  EATOM  =     13307.53328571
  Solvation  Ediel_sol  =         0.00000000
  ---------------------------------------------------
  free energy    TOTEN  =      -167.63213283 eV

  energy without entropy =     -167.63213283  energy(sigma->0) =     -167.63213283
  exchange ACFDT corr.  =         0.00000000  see jH, gK, PRB 81, 115126


--------------------------------------------------------------------------------------------------------




--------------------------------------- Iteration      1(  10)  ---------------------------------------


    POTLOK:  cpu time      0.1368: real time      0.1377
    SETDIJ:  cpu time      0.9301: real time      0.9324
     EDDAV:  cpu time    979.9110: real time    982.4314
 BZINTS: Fermi energy:    0.099748;  192.000000 electrons
         Band energy:-0.188937E+04;  BLOECHL correction:    0.000000
       DOS:  cpu time      0.0060: real time      0.0062
    CHARGE:  cpu time      0.3237: real time      0.3245
    MIXING:  cpu time      0.0006: real time      0.0006
    --------------------------------------------
      LOOP:  cpu time    981.3082: real time    983.8328

 eigenvalue-minimisations  :  6240
 total energy-change (2. order) : 0.6345030E-01  (-0.8833132E-02)
 number of electron     192.0000006 magnetization       0.0000000
 augmentation part        6.1854569 magnetization       0.0002232

 Free energy of the ion-electron system (eV)
  ---------------------------------------------------
  alpha Z        PSCENC =       842.13085518
  Ewald energy   TEWEN  =    -10379.33692041
  -Hartree energ DENC   =     -3144.95016180
  -exchange      EXHF   =       499.48145464
  -V(xc)+E(xc)   XCENC  =       455.46313556
  PAW double counting   =     19473.48616676   -19332.00981149
  entropy T*S    EENTRO =         0.00000000
  eigenvalues    EBANDS =     -1889.36668669
  atomic energy  EATOM  =     13307.53328571
  Solvation  Ediel_sol  =         0.00000000
  ---------------------------------------------------
  free energy    TOTEN  =      -167.56868253 eV

  energy without entropy =     -167.56868253  energy(sigma->0) =     -167.56868253
  exchange ACFDT corr.  =         0.00000000  see jH, gK, PRB 81, 115126


--------------------------------------------------------------------------------------------------------




--------------------------------------- Iteration      1(  11)  ---------------------------------------


    POTLOK:  cpu time      0.2227: real time      0.2246
    SETDIJ:  cpu time      0.9401: real time      0.9424
     EDDAV:  cpu time    982.1605: real time    985.2977
 BZINTS: Fermi energy:    0.220337;  192.000000 electrons
         Band energy:-0.188306E+04;  BLOECHL correction:    0.000000
       DOS:  cpu time      0.0070: real time      0.0072
    CHARGE:  cpu time      0.2940: real time      0.3072
    MIXING:  cpu time      0.0005: real time      0.0005
    --------------------------------------------
      LOOP:  cpu time    983.6248: real time    986.7796

 eigenvalue-minimisations  :  5520
 total energy-change (2. order) : 0.2563096E-01  (-0.7318353E-02)
 number of electron     192.0000006 magnetization       0.0000000
 augmentation part        6.1427153 magnetization       0.0002320

 Free energy of the ion-electron system (eV)
  ---------------------------------------------------
  alpha Z        PSCENC =       842.13085518
  Ewald energy   TEWEN  =    -10379.33692041
  -Hartree energ DENC   =     -3151.42461168
  -exchange      EXHF   =       499.32658286
  -V(xc)+E(xc)   XCENC  =       455.74771878
  PAW double counting   =     19833.47735196   -19691.93975761
  entropy T*S    EENTRO =         0.00000000
  eigenvalues    EBANDS =     -1883.05755636
  atomic energy  EATOM  =     13307.53328571
  Solvation  Ediel_sol  =         0.00000000
  ---------------------------------------------------
  free energy    TOTEN  =      -167.54305157 eV

  energy without entropy =     -167.54305157  energy(sigma->0) =     -167.54305157
  exchange ACFDT corr.  =         0.00000000  see jH, gK, PRB 81, 115126


--------------------------------------------------------------------------------------------------------




--------------------------------------- Iteration      1(  12)  ---------------------------------------


    POTLOK:  cpu time      0.1751: real time      0.1768
    SETDIJ:  cpu time      0.9362: real time      0.9387
     EDDAV:  cpu time    983.5031: real time    989.4701
 BZINTS: Fermi energy:    0.202804;  192.000000 electrons
         Band energy:-0.188134E+04;  BLOECHL correction:    0.000000
       DOS:  cpu time      0.0137: real time      0.0146
    CHARGE:  cpu time      0.2448: real time      0.5739
    MIXING:  cpu time      0.0009: real time      0.0010
    --------------------------------------------
      LOOP:  cpu time    984.8741: real time    991.1753

 eigenvalue-minimisations  :  6444
 total energy-change (2. order) : 0.1372433E-02  (-0.1784865E-02)
 number of electron     192.0000006 magnetization       0.0000000
 augmentation part        6.1271249 magnetization       0.0002066

 Free energy of the ion-electron system (eV)
  ---------------------------------------------------
  alpha Z        PSCENC =       842.13085518
  Ewald energy   TEWEN  =    -10379.33692041
  -Hartree energ DENC   =     -3152.77743403
  -exchange      EXHF   =       498.79833840
  -V(xc)+E(xc)   XCENC  =       455.79953325
  PAW double counting   =     20041.59628289   -19899.94600345
  entropy T*S    EENTRO =         0.00000000
  eigenvalues    EBANDS =     -1881.33961668
  atomic energy  EATOM  =     13307.53328571
  Solvation  Ediel_sol  =         0.00000000
  ---------------------------------------------------
  free energy    TOTEN  =      -167.54167914 eV

  energy without entropy =     -167.54167914  energy(sigma->0) =     -167.54167914
  exchange ACFDT corr.  =         0.00000000  see jH, gK, PRB 81, 115126


--------------------------------------------------------------------------------------------------------




--------------------------------------- Iteration      1(  13)  ---------------------------------------


    POTLOK:  cpu time      0.1947: real time      0.2573
    SETDIJ:  cpu time      0.9346: real time      0.9380
     EDDAV:  cpu time    982.6781: real time    985.1550
 BZINTS: Fermi energy:    0.186119;  192.000000 electrons
         Band energy:-0.188089E+04;  BLOECHL correction:    0.000000
       DOS:  cpu time      0.0061: real time      0.0063
    CHARGE:  cpu time      0.2071: real time      0.2076
    MIXING:  cpu time      0.0005: real time      0.0005
    --------------------------------------------
      LOOP:  cpu time    984.0209: real time    986.5645

 eigenvalue-minimisations  :  5568
 total energy-change (2. order) :-0.2770611E-03  (-0.5403408E-03)
 number of electron     192.0000006 magnetization      -0.0000000
 augmentation part        6.1364907 magnetization       0.0000105

 Free energy of the ion-electron system (eV)
  ---------------------------------------------------
  alpha Z        PSCENC =       842.13085518
  Ewald energy   TEWEN  =    -10379.33692041
  -Hartree energ DENC   =     -3153.22789481
  -exchange      EXHF   =       498.67545424
  -V(xc)+E(xc)   XCENC  =       455.81492265
  PAW double counting   =     20157.36655541   -20015.61207390
  entropy T*S    EENTRO =         0.00000000
  eigenvalues    EBANDS =     -1880.88614028
  atomic energy  EATOM  =     13307.53328571
  Solvation  Ediel_sol  =         0.00000000
  ---------------------------------------------------
  free energy    TOTEN  =      -167.54195620 eV

  energy without entropy =     -167.54195620  energy(sigma->0) =     -167.54195620
  exchange ACFDT corr.  =         0.00000000  see jH, gK, PRB 81, 115126


--------------------------------------------------------------------------------------------------------




--------------------------------------- Iteration      1(  14)  ---------------------------------------


    POTLOK:  cpu time      0.1633: real time      0.1647
    SETDIJ:  cpu time      0.9381: real time      0.9404
     EDDAV:  cpu time    982.3992: real time    984.9069
 BZINTS: Fermi energy:    0.170817;  192.000000 electrons
         Band energy:-0.188026E+04;  BLOECHL correction:    0.000000
       DOS:  cpu time      0.0060: real time      0.0062
    CHARGE:  cpu time      0.2042: real time      0.2047
    MIXING:  cpu time      0.0004: real time      0.0004
    --------------------------------------------
      LOOP:  cpu time    983.7111: real time    986.2233

 eigenvalue-minimisations  :  5376
 total energy-change (2. order) :-0.9573611E-03  (-0.1561930E-03)
 number of electron     192.0000006 magnetization       0.0000000
 augmentation part        6.1379733 magnetization       0.0000257

 Free energy of the ion-electron system (eV)
  ---------------------------------------------------
  alpha Z        PSCENC =       842.13085518
  Ewald energy   TEWEN  =    -10379.33692041
  -Hartree energ DENC   =     -3153.97770359
  -exchange      EXHF   =       498.71667250
  -V(xc)+E(xc)   XCENC  =       455.84804227
  PAW double counting   =     20219.20827889   -20077.40173359
  entropy T*S    EENTRO =         0.00000000
  eigenvalues    EBANDS =     -1880.26369052
  atomic energy  EATOM  =     13307.53328571
  Solvation  Ediel_sol  =         0.00000000
  ---------------------------------------------------
  free energy    TOTEN  =      -167.54291356 eV

  energy without entropy =     -167.54291356  energy(sigma->0) =     -167.54291356
  exchange ACFDT corr.  =         0.00000000  see jH, gK, PRB 81, 115126


--------------------------------------------------------------------------------------------------------




--------------------------------------- Iteration      1(  15)  ---------------------------------------


    POTLOK:  cpu time      0.1805: real time      0.1819
    SETDIJ:  cpu time      1.1321: real time      1.1349
     EDDAV:  cpu time    983.6775: real time    987.4867
 BZINTS: Fermi energy:    0.194205;  192.000000 electrons
         Band energy:-0.187973E+04;  BLOECHL correction:    0.000000
       DOS:  cpu time      0.0096: real time      0.0323
    CHARGE:  cpu time      0.2347: real time      0.2360
    MIXING:  cpu time      0.0013: real time      0.0013
    --------------------------------------------
      LOOP:  cpu time    985.2366: real time    989.0740

 eigenvalue-minimisations  :  5940
 total energy-change (2. order) :-0.6677013E-03  (-0.7100262E-04)
 number of electron     192.0000006 magnetization      -0.0000000
 augmentation part        6.1379664 magnetization      -0.0000136

 Free energy of the ion-electron system (eV)
  ---------------------------------------------------
  alpha Z        PSCENC =       842.13085518
  Ewald energy   TEWEN  =    -10379.33692041
  -Hartree energ DENC   =     -3154.57274889
  -exchange      EXHF   =       498.71682262
  -V(xc)+E(xc)   XCENC  =       455.87523384
  PAW double counting   =     20252.27892637   -20110.44035516
  entropy T*S    EENTRO =         0.00000000
  eigenvalues    EBANDS =     -1879.72868053
  atomic energy  EATOM  =     13307.53328571
  Solvation  Ediel_sol  =         0.00000000
  ---------------------------------------------------
  free energy    TOTEN  =      -167.54358126 eV

  energy without entropy =     -167.54358126  energy(sigma->0) =     -167.54358126
  exchange ACFDT corr.  =         0.00000000  see jH, gK, PRB 81, 115126


--------------------------------------------------------------------------------------------------------




--------------------------------------- Iteration      1(  16)  ---------------------------------------


    POTLOK:  cpu time      0.2020: real time      0.2058
    SETDIJ:  cpu time      0.9382: real time      0.9412
     EDDAV:  cpu time    985.9612: real time    992.1514
 BZINTS: Fermi energy:    0.187059;  192.000000 electrons
         Band energy:-0.187944E+04;  BLOECHL correction:    0.000000
       DOS:  cpu time      0.0127: real time      0.0354
    CHARGE:  cpu time      0.2168: real time      0.4710
    MIXING:  cpu time      0.0028: real time      0.0028
    --------------------------------------------
      LOOP:  cpu time    987.3337: real time    993.8076

 eigenvalue-minimisations  :  5328
 total energy-change (2. order) :-0.4373999E-03  (-0.2974447E-04)
 number of electron     192.0000006 magnetization       0.0000000
 augmentation part        6.1375535 magnetization       0.0000071

 Free energy of the ion-electron system (eV)
  ---------------------------------------------------
  alpha Z        PSCENC =       842.13085518
  Ewald energy   TEWEN  =    -10379.33692041
  -Hartree energ DENC   =     -3154.87330632
  -exchange      EXHF   =       498.69270317
  -V(xc)+E(xc)   XCENC  =       455.88912945
  PAW double counting   =     20270.11930811   -20128.25899480
  entropy T*S    EENTRO =         0.00000000
  eigenvalues    EBANDS =     -1879.44007875
  atomic energy  EATOM  =     13307.53328571
  Solvation  Ediel_sol  =         0.00000000
  ---------------------------------------------------
  free energy    TOTEN  =      -167.54401866 eV

  energy without entropy =     -167.54401866  energy(sigma->0) =     -167.54401866
  exchange ACFDT corr.  =         0.00000000  see jH, gK, PRB 81, 115126


--------------------------------------------------------------------------------------------------------




--------------------------------------- Iteration      1(  17)  ---------------------------------------


    POTLOK:  cpu time      0.1461: real time      0.2329
    SETDIJ:  cpu time      0.9312: real time      0.9348
     EDDAV:  cpu time    985.5060: real time    988.0226
 BZINTS: Fermi energy:    0.181796;  192.000000 electrons
         Band energy:-0.187927E+04;  BLOECHL correction:    0.000000
       DOS:  cpu time      0.0065: real time      0.0067
    CHARGE:  cpu time      0.2046: real time      0.2051
    MIXING:  cpu time      0.0004: real time      0.0004
    --------------------------------------------
      LOOP:  cpu time    986.7941: real time    989.4014

 eigenvalue-minimisations  :  5160
 total energy-change (2. order) :-0.2452189E-03  (-0.1184139E-04)
 number of electron     192.0000006 magnetization      -0.0000000
 augmentation part        6.1373592 magnetization       0.0000010

 Free energy of the ion-electron system (eV)
  ---------------------------------------------------
  alpha Z        PSCENC =       842.13085518
  Ewald energy   TEWEN  =    -10379.33692041
  -Hartree energ DENC   =     -3155.05334950
  -exchange      EXHF   =       498.68319507
  -V(xc)+E(xc)   XCENC  =       455.89757973
  PAW double counting   =     20279.77263018   -20137.89757373
  entropy T*S    EENTRO =         0.00000000
  eigenvalues    EBANDS =     -1879.27396611
  atomic energy  EATOM  =     13307.53328571
  Solvation  Ediel_sol  =         0.00000000
  ---------------------------------------------------
  free energy    TOTEN  =      -167.54426388 eV

  energy without entropy =     -167.54426388  energy(sigma->0) =     -167.54426388
  exchange ACFDT corr.  =         0.00000000  see jH, gK, PRB 81, 115126


--------------------------------------------------------------------------------------------------------




--------------------------------------- Iteration      1(  18)  ---------------------------------------


    POTLOK:  cpu time      0.1325: real time      0.1341
    SETDIJ:  cpu time      0.9354: real time      0.9376
     EDDAV:  cpu time    983.1599: real time    985.6393
 BZINTS: Fermi energy:    0.178060;  192.000000 electrons
         Band energy:-0.187916E+04;  BLOECHL correction:    0.000000
       DOS:  cpu time      0.0054: real time      0.0056
    CHARGE:  cpu time      0.2033: real time      0.2038
    MIXING:  cpu time      0.0005: real time      0.0005
    --------------------------------------------
      LOOP:  cpu time    984.4372: real time    986.9209

 eigenvalue-minimisations  :  4560
 total energy-change (2. order) :-0.1316266E-03  (-0.5332057E-05)
 number of electron     192.0000006 magnetization       0.0000000
 augmentation part        6.1375103 magnetization      -0.0000002

 Free energy of the ion-electron system (eV)
  ---------------------------------------------------
  alpha Z        PSCENC =       842.13085518
  Ewald energy   TEWEN  =    -10379.33692041
  -Hartree energ DENC   =     -3155.17965577
  -exchange      EXHF   =       498.68035935
  -V(xc)+E(xc)   XCENC  =       455.90357392
  PAW double counting   =     20285.01355474   -20143.12871224
  entropy T*S    EENTRO =         0.00000000
  eigenvalues    EBANDS =     -1879.16073600
  atomic energy  EATOM  =     13307.53328571
  Solvation  Ediel_sol  =         0.00000000
  ---------------------------------------------------
  free energy    TOTEN  =      -167.54439550 eV

  energy without entropy =     -167.54439550  energy(sigma->0) =     -167.54439550
  exchange ACFDT corr.  =         0.00000000  see jH, gK, PRB 81, 115126


--------------------------------------------------------------------------------------------------------




--------------------------------------- Iteration      1(  19)  ---------------------------------------


    POTLOK:  cpu time      0.1325: real time      0.1340
    SETDIJ:  cpu time      1.0358: real time      1.0385
     EDDAV:  cpu time    985.8212: real time    989.0058
 BZINTS: Fermi energy:    0.276938;  192.000000 electrons
         Band energy:-0.187908E+04;  BLOECHL correction:    0.000000
       DOS:  cpu time      0.0069: real time      0.0215
    CHARGE:  cpu time      0.2343: real time      0.2355
    MIXING:  cpu time      0.0017: real time      0.0017
    --------------------------------------------
      LOOP:  cpu time    987.2329: real time    990.4376

 eigenvalue-minimisations  :  4092
 total energy-change (2. order) :-0.6865628E-04  (-0.2422708E-05)
[...]
 -0.000   0.000  -0.000 -10.237  -0.001  -0.000 -10.221  -0.001
 -0.000  -0.000   0.000  -0.001 -10.234   0.000  -0.001 -10.218
  0.003  -0.007 -10.221  -0.000   0.000 -10.200  -0.000   0.000
 -0.000   0.000  -0.000 -10.221  -0.001  -0.000 -10.200  -0.001
 -0.000  -0.000   0.000  -0.001 -10.218   0.000  -0.001 -10.197
  0.000   0.000  -0.000  -0.000  -0.000  -0.000  -0.000  -0.000
 -0.000   0.000  -0.000  -0.000  -0.000  -0.000  -0.000  -0.000
  0.000  -0.000   0.000  -0.000   0.000   0.000  -0.000   0.000
  0.000  -0.000  -0.000  -0.000  -0.000  -0.000  -0.000  -0.000
 -0.000   0.000   0.000   0.000  -0.000   0.000   0.000  -0.000
 pseudopotential strength for first ion, spin component:           2
 -5.806  -1.035   0.003   0.000   0.000   0.003   0.000   0.000
 -1.035  -1.091  -0.007   0.000  -0.000  -0.007   0.000  -0.000
  0.003  -0.007 -10.237   0.000  -0.000 -10.221   0.000  -0.000
  0.000   0.000   0.000 -10.237  -0.001   0.000 -10.221  -0.001
  0.000  -0.000  -0.000  -0.001 -10.234  -0.000  -0.001 -10.218
  0.003  -0.007 -10.221   0.000  -0.000 -10.200   0.000  -0.000
  0.000   0.000   0.000 -10.221  -0.001   0.000 -10.200  -0.001
  0.000  -0.000  -0.000  -0.001 -10.218  -0.000  -0.001 -10.197
 -0.000   0.000  -0.000  -0.000  -0.000  -0.000  -0.000  -0.000
  0.000  -0.000   0.000  -0.000  -0.000   0.000  -0.000  -0.000
  0.000  -0.000   0.000   0.000   0.000   0.000   0.000   0.000
  0.000  -0.000  -0.000  -0.000   0.000  -0.000  -0.000   0.000
 -0.000   0.000   0.000  -0.000  -0.000   0.000  -0.000  -0.000
 total augmentation occupancy for first ion, spin component:           1
  2.017   0.059  -0.034   0.000  -0.000   0.034  -0.000   0.000  -0.000   0.000   0.010   0.008  -0.015
  0.059   0.336   0.296   0.000  -0.000  -0.219  -0.000   0.000  -0.000  -0.000  -0.013   0.031   0.015
 -0.034   0.296   3.211  -0.000   0.000  -1.522   0.000  -0.000  -0.000  -0.000  -0.305   0.527  -0.153
  0.000   0.000  -0.000   3.306   0.028   0.000  -1.596  -0.053   0.543   0.050   0.000  -0.000  -0.000
 -0.000  -0.000   0.000   0.028   3.529  -0.000  -0.053  -1.751   0.437   0.553  -0.000   0.000  -0.000
  0.034  -0.219  -1.522   0.000  -0.000   1.849  -0.000   0.000   0.000   0.000   0.225  -0.413   0.082
 -0.000  -0.000   0.000  -1.596  -0.053  -0.000   1.905   0.074  -0.427  -0.003  -0.000   0.000   0.000
  0.000   0.000  -0.000  -0.053  -1.751   0.000   0.074   2.002  -0.320  -0.434   0.000  -0.000   0.000
 -0.000  -0.000  -0.000   0.543   0.437   0.000  -0.427  -0.320   0.303   0.062  -0.000  -0.000  -0.000
  0.000  -0.000  -0.000   0.050   0.553   0.000  -0.003  -0.434   0.062   0.250   0.000   0.000  -0.000
  0.010  -0.013  -0.305   0.000  -0.000   0.225  -0.000   0.000  -0.000   0.000   0.112  -0.081   0.010
  0.008   0.031   0.527  -0.000   0.000  -0.413   0.000  -0.000  -0.000   0.000  -0.081   0.308   0.018
 -0.015   0.015  -0.153  -0.000  -0.000   0.082   0.000   0.000  -0.000  -0.000   0.010   0.018   0.113
 total augmentation occupancy for first ion, spin component:           2
  0.000   0.000  -0.000  -0.000  -0.000   0.000   0.000   0.000   0.000  -0.000  -0.000   0.000  -0.000
  0.000  -0.000  -0.000  -0.000   0.000   0.000  -0.000  -0.000   0.000   0.000   0.000   0.000  -0.000
 -0.000  -0.000   0.000   0.000   0.000  -0.000  -0.000  -0.000   0.000   0.000  -0.000   0.000  -0.000
 -0.000  -0.000   0.000   0.000  -0.000  -0.000  -0.000   0.000   0.000  -0.000  -0.000   0.000   0.000
 -0.000   0.000   0.000  -0.000   0.000   0.000   0.000  -0.000   0.000  -0.000   0.000  -0.000  -0.000
  0.000   0.000  -0.000  -0.000   0.000   0.000   0.000   0.000  -0.000  -0.000  -0.000  -0.000   0.000
  0.000  -0.000  -0.000  -0.000   0.000   0.000  -0.000  -0.000  -0.000   0.000   0.000  -0.000  -0.000
  0.000  -0.000  -0.000   0.000  -0.000   0.000  -0.000   0.000  -0.000  -0.000  -0.000   0.000  -0.000
  0.000   0.000   0.000   0.000   0.000  -0.000  -0.000  -0.000   0.000  -0.000  -0.000   0.000   0.000
 -0.000   0.000   0.000  -0.000  -0.000  -0.000   0.000  -0.000  -0.000  -0.000  -0.000  -0.000  -0.000
 -0.000   0.000  -0.000  -0.000   0.000  -0.000   0.000  -0.000  -0.000  -0.000  -0.000   0.000   0.000
  0.000   0.000   0.000   0.000  -0.000  -0.000  -0.000   0.000   0.000  -0.000   0.000  -0.000  -0.000
 -0.000  -0.000  -0.000   0.000  -0.000   0.000  -0.000  -0.000   0.000  -0.000   0.000  -0.000  -0.000


------------------------ aborting loop because EDIFF is reached ----------------------------------------





 total charge

# of ion       s       p       d       tot
------------------------------------------
    1        1.948   5.409   0.039   7.396
    2        1.948   5.409   0.039   7.396
    3        1.948   5.409   0.039   7.396
    4        1.948   5.409   0.039   7.396
    5        1.946   5.411   0.035   7.393
    6        1.946   5.411   0.035   7.393
    7        1.946   5.411   0.035   7.393
    8        1.946   5.411   0.035   7.393
    9        1.949   5.412   0.046   7.407
   10        1.949   5.412   0.046   7.407
   11        1.949   5.412   0.046   7.407
   12        1.949   5.412   0.046   7.407
   13        0.409   0.462   0.000   0.870
   14        0.409   0.462   0.000   0.870
   15        0.409   0.462   0.000   0.870
   16        0.409   0.462   0.000   0.870
   17        1.552   3.543   0.000   5.095
   18        1.552   3.543   0.000   5.095
   19        1.552   3.543   0.000   5.095
   20        1.552   3.543   0.000   5.095
   21        1.551   3.495   0.000   5.046
   22        1.551   3.495   0.000   5.046
   23        1.551   3.495   0.000   5.046
   24        1.551   3.495   0.000   5.046
   25        1.551   3.495   0.000   5.046
   26        1.551   3.495   0.000   5.046
   27        1.551   3.495   0.000   5.046
   28        1.551   3.495   0.000   5.046
--------------------------------------------------
tot         43.620 108.910   0.481 153.012



 magnetization (x)

# of ion       s       p       d       tot
------------------------------------------
    1       -0.000   0.000  -0.000  -0.000
    2       -0.000   0.000  -0.000  -0.000
    3       -0.000   0.000  -0.000  -0.000
    4       -0.000   0.000  -0.000  -0.000
    5       -0.000   0.000  -0.000  -0.000
    6       -0.000   0.000  -0.000  -0.000
    7       -0.000   0.000  -0.000  -0.000
    8       -0.000   0.000  -0.000  -0.000
    9       -0.000   0.000   0.000   0.000
   10       -0.000   0.000   0.000   0.000
   11       -0.000   0.000   0.000   0.000
   12       -0.000   0.000   0.000   0.000
   13       -0.000  -0.000   0.000  -0.000
   14       -0.000  -0.000   0.000  -0.000
   15       -0.000  -0.000   0.000  -0.000
   16       -0.000  -0.000   0.000  -0.000
   17       -0.000  -0.000   0.000  -0.000
   18       -0.000  -0.000   0.000  -0.000
   19       -0.000  -0.000   0.000  -0.000
   20       -0.000  -0.000   0.000  -0.000
   21       -0.000   0.000   0.000   0.000
   22       -0.000   0.000   0.000   0.000
   23       -0.000   0.000   0.000   0.000
   24       -0.000   0.000   0.000   0.000
   25       -0.000   0.000   0.000   0.000
   26       -0.000   0.000   0.000   0.000
   27       -0.000   0.000   0.000   0.000
   28       -0.000   0.000   0.000   0.000
--------------------------------------------------
tot         -0.000   0.000  -0.000   0.000
 
    CHARGE:  cpu time      0.2076: real time      0.2081
    FORLOC:  cpu time      0.0036: real time      0.0041
    FORHF :  cpu time    875.2510: real time    878.5850
    FORNL :  cpu time      0.5561: real time      0.5845
    FORCOR:  cpu time      1.1010: real time      1.1264
    FORHAR:  cpu time      0.0129: real time      0.0135
    MIXING:  cpu time      0.0010: real time      0.0010
    OFIELD:  cpu time      0.0018: real time      0.0022

 VOLUME and BASIS-vectors are now :
 -----------------------------------------------------------------------------
  energy-cutoff  :      680.00
  volume of cell :      537.42
      direct lattice vectors                 reciprocal lattice vectors
     7.003185327  0.000000000 -1.754128866     0.142789379  0.000000000 -0.000011127
    -0.000000000 11.366469227  0.000000000     0.000000000  0.087978068  0.000000000
     0.000526119  0.000000000  6.751258509     0.037099893 -0.000000000  0.148117641

  length of vectors
     7.219527187 11.366469227  6.751258529     0.142789379  0.087978068  0.152693279


 FORCES acting on ions
    electron-ion (+dipol)            ewald-force                    non-local-force                 convergence-correction
 -----------------------------------------------------------------------------------------------
   0.113E-05 -.556E+02 -.536E-06   -.568E-13 0.534E+02 0.551E-13   -.982E-16 0.159E+01 0.982E-16   -.604E-05 0.370E-02 0.219E-05
   0.686E-06 0.556E+02 -.216E-06   0.142E-13 -.534E+02 0.000E+00   0.982E-16 -.159E+01 -.982E-16   -.715E-05 -.371E-02 0.119E-05
   -.115E-05 -.556E+02 -.705E-06   -.497E-13 0.534E+02 0.568E-13   -.982E-16 0.159E+01 0.982E-16   0.701E-05 0.378E-02 -.566E-06
   -.114E-05 0.556E+02 0.134E-05   0.169E-13 -.534E+02 0.844E-14   0.982E-16 -.159E+01 -.982E-16   0.684E-05 -.378E-02 -.210E-05
   0.659E-06 0.198E+02 0.956E-06   -.187E-13 -.183E+02 0.147E-13   0.667E-16 -.108E+01 -.667E-16   -.374E-05 -.775E-03 -.372E-05
   0.715E-06 -.198E+02 0.242E-06   0.711E-14 0.183E+02 0.426E-13   -.667E-16 0.108E+01 0.667E-16   -.448E-05 0.780E-03 -.302E-05
   -.106E-05 0.198E+02 0.981E-07   -.284E-13 -.183E+02 0.711E-14   0.667E-16 -.108E+01 -.667E-16   0.258E-05 -.705E-03 0.150E-05
   0.545E-06 -.198E+02 -.973E-06   0.124E-13 0.183E+02 0.444E-13   -.667E-16 0.108E+01 0.667E-16   0.175E-05 0.704E-03 0.367E-05
   -.280E+02 -.842E-06 0.630E+02   0.274E+02 0.213E-13 -.620E+02   0.483E+00 0.473E-22 -.768E+00   -.360E-04 0.355E-05 -.370E-02
   0.280E+02 -.156E-05 -.630E+02   -.274E+02 0.355E-14 0.620E+02   -.483E+00 0.741E-22 0.768E+00   0.392E-04 0.352E-05 0.369E-02
   -.280E+02 0.213E-05 0.630E+02   0.274E+02 0.355E-13 -.620E+02   0.483E+00 -.236E-22 -.768E+00   -.310E-04 -.102E-04 -.369E-02
   0.280E+02 0.234E-05 -.630E+02   -.274E+02 0.284E-13 0.620E+02   -.483E+00 0.281E-22 0.768E+00   0.374E-04 -.903E-05 0.370E-02
   0.141E+02 -.107E-05 -.391E+00   -.153E+02 0.409E-13 -.928E+00   0.114E+01 -.884E-23 0.127E+01   -.759E-03 0.339E-05 0.938E-04
   -.141E+02 -.422E-06 0.391E+00   0.153E+02 -.604E-13 0.928E+00   -.114E+01 -.895E-23 -.127E+01   0.758E-03 0.389E-05 -.918E-04
   0.141E+02 0.198E-06 -.391E+00   -.153E+02 0.409E-13 -.928E+00   0.114E+01 0.108E-22 0.127E+01   -.757E-03 -.168E-05 0.911E-04
   -.141E+02 0.177E-06 0.391E+00   0.153E+02 -.568E-13 0.928E+00   -.114E+01 -.303E-23 -.127E+01   0.757E-03 -.170E-05 -.931E-04
   -.586E+02 -.112E-05 0.717E+02   0.683E+02 -.320E-13 -.866E+02   -.864E+01 0.763E-22 0.133E+02   0.199E-02 0.972E-05 -.850E-03
   0.586E+02 -.154E-05 -.717E+02   -.683E+02 -.284E-13 0.866E+02   0.864E+01 0.423E-22 -.133E+02   -.200E-02 0.107E-04 0.855E-03
   -.586E+02 0.578E-06 0.717E+02   0.683E+02 -.142E-13 -.866E+02   -.864E+01 0.527E-22 0.133E+02   0.199E-02 -.313E-05 -.852E-03
   0.586E+02 0.291E-06 -.717E+02   -.683E+02 -.213E-13 0.866E+02   0.864E+01 0.237E-22 -.133E+02   -.199E-02 -.279E-05 0.852E-03
   0.193E+02 -.480E+02 0.362E+01   -.266E+02 0.610E+02 -.869E+01   0.653E+01 -.117E+02 0.456E+01   -.651E-03 0.106E-03 0.621E-03
   0.193E+02 0.480E+02 0.362E+01   -.266E+02 -.610E+02 -.869E+01   0.653E+01 0.117E+02 0.456E+01   -.660E-03 -.985E-04 0.619E-03
   -.193E+02 0.480E+02 -.362E+01   0.266E+02 -.610E+02 0.869E+01   -.653E+01 0.117E+02 -.456E+01   0.659E-03 -.926E-04 -.615E-03
   -.193E+02 -.480E+02 -.362E+01   0.266E+02 0.610E+02 0.869E+01   -.653E+01 -.117E+02 -.456E+01   0.649E-03 0.100E-03 -.617E-03
   0.193E+02 -.480E+02 0.362E+01   -.266E+02 0.610E+02 -.869E+01   0.653E+01 -.117E+02 0.456E+01   -.647E-03 0.128E-03 0.616E-03
   0.193E+02 0.480E+02 0.362E+01   -.266E+02 -.610E+02 -.869E+01   0.653E+01 0.117E+02 0.456E+01   -.651E-03 -.136E-03 0.616E-03
   -.193E+02 0.480E+02 -.362E+01   0.266E+02 -.610E+02 0.869E+01   -.653E+01 0.117E+02 -.456E+01   0.654E-03 -.145E-03 -.620E-03
   -.193E+02 -.480E+02 -.362E+01   0.266E+02 0.610E+02 0.869E+01   -.653E+01 -.117E+02 -.456E+01   0.647E-03 0.138E-03 -.619E-03
 -----------------------------------------------------------------------------------------------
   0.156E-05 -.989E-06 0.188E-06   0.213E-13 0.639E-13 -.568E-13   -.266E-14 0.000E+00 -.178E-14   0.134E-05 0.573E-05 0.640E-05
 
 
 POSITION                                       TOTAL-FORCE (eV/Angst)
 -----------------------------------------------------------------------------------
     -0.00000      3.03671      0.00000        -0.000000      0.019045      0.000000
     -0.00000      8.32976      0.00000         0.000000     -0.019045     -0.000000
      3.50159      8.71994     -0.87706        -0.000000      0.019045      0.000000
      3.50159      2.64653     -0.87706         0.000000     -0.019045     -0.000000
      0.00026      2.25507      3.37563         0.000000     -0.030680     -0.000000
      0.00026      9.11140      3.37563        -0.000000      0.030680      0.000000
      3.50186      7.93830      2.49856         0.000000     -0.030680     -0.000000
      3.50186      3.42816      2.49856        -0.000000      0.030680      0.000000
      4.40958      0.00000      1.24496         0.030449      0.000000     -0.047017
      2.59413      0.00000      3.75216        -0.030449      0.000000      0.047017
      0.90798      5.68323      2.12203         0.030449      0.000000     -0.047017
      6.09573      5.68323      2.87510        -0.030449      0.000000      0.047017
      5.90345      0.00000      4.28107        -0.019072      0.000000     -0.029859
      1.10026      0.00000      0.71606         0.019072      0.000000      0.029859
      2.40186      5.68323      5.15814        -0.019072      0.000000     -0.029859
      4.60185      5.68323     -0.16101         0.019072      0.000000      0.029859
      0.70234      0.00000      5.66973        -0.168129      0.000000      0.259313
      6.30138      0.00000     -0.67260         0.168129      0.000000     -0.259313
      4.20393      5.68323      4.79267        -0.168129      0.000000      0.259313
      2.79978      5.68323      0.20446         0.168129      0.000000     -0.259313
      5.07657      1.45296      3.70163         0.159406     -0.286259      0.129557
      5.07657      9.91351      3.70163         0.159406      0.286259      0.129557
      1.92714      9.91351      1.29550        -0.159406      0.286259     -0.129557
      1.92714      1.45296      1.29550        -0.159406     -0.286259     -0.129557
      1.57498      7.13620      4.57870         0.159406     -0.286259      0.129557
      1.57498      4.23027      4.57870         0.159406      0.286259      0.129557
      5.42873      4.23027      0.41843        -0.159406      0.286259     -0.129557
      5.42873      7.13620      0.41843        -0.159406     -0.286259     -0.129557
 -----------------------------------------------------------------------------------
    total drift:                                0.000003      0.000005      0.000007


--------------------------------------------------------------------------------------------------------



  FREE ENERGIE OF THE ION-ELECTRON SYSTEM (eV)
  ---------------------------------------------------
  free  energy   TOTEN  =      -167.54452661 eV

  energy  without entropy=     -167.54452661  energy(sigma->0) =     -167.54452661
 


--------------------------------------------------------------------------------------------------------


    POTLOK:  cpu time      1.3879: real time      2.2281


--------------------------------------------------------------------------------------------------------


     LOOP+:  cpu time  18573.3677: real time  18641.3283
    4ORBIT:  cpu time      0.0000: real time      0.0000



 total charge

# of ion       s       p       d       tot
------------------------------------------
    1        1.948   5.409   0.039   7.396
    2        1.948   5.409   0.039   7.396
    3        1.948   5.409   0.039   7.396
    4        1.948   5.409   0.039   7.396
    5        1.946   5.411   0.035   7.393
    6        1.946   5.411   0.035   7.393
    7        1.946   5.411   0.035   7.393
    8        1.946   5.411   0.035   7.393
    9        1.949   5.412   0.046   7.407
   10        1.949   5.412   0.046   7.407
   11        1.949   5.412   0.046   7.407
   12        1.949   5.412   0.046   7.407
   13        0.409   0.462   0.000   0.870
   14        0.409   0.462   0.000   0.870
   15        0.409   0.462   0.000   0.870
   16        0.409   0.462   0.000   0.870
   17        1.552   3.543   0.000   5.095
   18        1.552   3.543   0.000   5.095
   19        1.552   3.543   0.000   5.095
   20        1.552   3.543   0.000   5.095
   21        1.551   3.495   0.000   5.046
   22        1.551   3.495   0.000   5.046
   23        1.551   3.495   0.000   5.046
   24        1.551   3.495   0.000   5.046
   25        1.551   3.495   0.000   5.046
   26        1.551   3.495   0.000   5.046
   27        1.551   3.495   0.000   5.046
   28        1.551   3.495   0.000   5.046
--------------------------------------------------
tot         43.620 108.910   0.481 153.012



 magnetization (x)

# of ion       s       p       d       tot
------------------------------------------
    1       -0.000   0.000  -0.000  -0.000
    2       -0.000   0.000  -0.000  -0.000
    3       -0.000   0.000  -0.000  -0.000
    4       -0.000   0.000  -0.000  -0.000
    5       -0.000   0.000  -0.000  -0.000
    6       -0.000   0.000  -0.000  -0.000
    7       -0.000   0.000  -0.000  -0.000
    8       -0.000   0.000  -0.000  -0.000
    9       -0.000   0.000   0.000   0.000
   10       -0.000   0.000   0.000   0.000
   11       -0.000   0.000   0.000   0.000
   12       -0.000   0.000   0.000   0.000
   13       -0.000  -0.000   0.000  -0.000
   14       -0.000  -0.000   0.000  -0.000
   15       -0.000  -0.000   0.000  -0.000
   16       -0.000  -0.000   0.000  -0.000
   17       -0.000  -0.000   0.000  -0.000
   18       -0.000  -0.000   0.000  -0.000
   19       -0.000  -0.000   0.000  -0.000
   20       -0.000  -0.000   0.000  -0.000
   21       -0.000   0.000   0.000   0.000
   22       -0.000   0.000   0.000   0.000
   23       -0.000   0.000   0.000   0.000
   24       -0.000   0.000   0.000   0.000
   25       -0.000   0.000   0.000   0.000
   26       -0.000   0.000   0.000   0.000
   27       -0.000   0.000   0.000   0.000
   28       -0.000   0.000   0.000   0.000
--------------------------------------------------
tot         -0.000   0.000  -0.000   0.000
 
 BZINTS: Fermi energy:    0.269550;  192.000000 electrons
         Band energy:-0.187897E+04;  BLOECHL correction:    0.000000

 total amount of memory used by VASP MPI-rank0   118324. kBytes
=======================================================================

   base      :      30000. kBytes
   nonl-proj :       4024. kBytes
   fftplans  :       2852. kBytes
   grid      :       6090. kBytes
   one-center:         32. kBytes
   HF        :         67. kBytes
   nonlr-proj:      17359. kBytes
   wavefun   :       7372. kBytes
   fock_wrk  :      50528. kBytes
 
  
  
 General timing and accounting informations for this job:
 ========================================================
  
                  Total CPU time used (sec):    18609.959
                            User time (sec):    15959.138
                          System time (sec):     2650.820
                         Elapsed time (sec):    18678.978
  
                   Maximum memory used (kb):      590460.
                   Average memory used (kb):          N/A
  
                          Minor page faults:      3810152
                          Major page faults:            2
                 Voluntary context switches:       112748
