 vasp.6.4.2 20Jul23 (build Mar 15 2024 16:31:38) complex                        
  
 executed on             LinuxIFC date 2025.03.31  17:49:24
 running  120 mpi-ranks, on    3 nodes
 distrk:  each k-point on  120 cores,    1 groups
 distr:  one band on NCORE=  20 cores,    6 groups


--------------------------------------------------------------------------------------------------------


 INCAR:
   ALGO = Normal
   CSHIFT = 1e-05
   EDIFF = 1e-05
   ENAUG = 1360
   ENCUT = 680
   GGA = Pe
   HFSCREEN = 0.2
   ISMEAR = -5
   ISPIN = 1
   LAECHG = True
   LASPH = True
   LCHARG = False
   LDAU = False
   LELF = False
   LHFCALC = True
   LMAXMIX = 4
   LMIXTAU = True
   LOPTICS = True
   LORBIT = 11
   LREAL = False
   LVTOT = True
   LWAVE = False
   NBANDS = 116
   NCORE = 20
   NEDOS = 1433
   NELM = 200
   NELMIN = 5
   NSW = 0
   PREC = Accurate
   PRECFOCK = Accurate
   SIGMA = 0.05

 POTCAR:    PAW_PBE Cs_sv 08Apr2002               
 POTCAR:    PAW_PBE Ga_d 06Jul2010                
 POTCAR:    PAW_PBE Se 06Sep2000                  
 WARNING: For LVTOT=.TRUE., VASP.5.x writes the TOTAL local potential to the
     file LOCPOT. If you want only the Hartree contributions, use LVHAR=.TRUE.
     instead. 

 POTCAR:    PAW_PBE Cs_sv 08Apr2002               
   VRHFIN =Cs: 5s5p6s                                                                               
   LEXCH  = PE                                                                                      
   EATOM  =   555.6835 eV,   40.8416 Ry                                                             
                                                                                                    
   TITEL  = PAW_PBE Cs_sv 08Apr2002                                                                 
   LULTRA =        F    use ultrasoft PP ?                                                          
   IUNSCR =        1    unscreen: 0-lin 1-nonlin 2-no                                               
   RPACOR =    2.200    partial core radius                                                         
   POMASS =  132.900; ZVAL   =    9.000    mass and valenz                                          
   RCORE  =    2.500    outmost cutoff radius                                                       
   RWIGS  =    2.500; RWIGS  =    1.323    wigner-seitz radius (au A)                               
   ENMAX  =  220.318; ENMIN  =  165.238 eV                                                          
   RCLOC  =    2.207    cutoff for local pot                                                        
   LCOR   =        T    correct aug charges                                                         
   LPAW   =        T    paw PP                                                                      
   EAUG   =  407.933                                                                                
   DEXC   =    0.000                                                                                
   RMAX   =    2.554    core radius for proj-oper                                                   
   RAUG   =    1.300    factor for augmentation sphere                                              
   RDEP   =    2.590    radius for radial grids                                                     
   RDEPT  =    2.117    core radius for aug-charge                                                  
                                                                                                    
   Atomic configuration                                                                             
   13 entries                                                                                       
     n  l   j            E        occ.                                                              
     1  0  0.50    -35790.1377   2.0000                                                             
     2  0  0.50     -5613.6201   2.0000                                                             
     2  1  1.50     -5035.0101   6.0000                                                             
     3  0  0.50     -1167.0767   2.0000                                                             
     3  1  1.50      -980.9754   6.0000                                                             
     3  2  2.50      -708.0703  10.0000                                                             
     4  0  0.50      -220.2386   2.0000                                                             
     4  1  1.50      -160.7596   6.0000                                                             
     4  2  2.50       -74.2354  10.0000                                                             
     5  0  0.50       -26.7287   2.0000                                                             
     6  0  0.50        -2.0862   1.0000                                                             
     5  1  1.50       -13.5159   6.0000                                                             
     5  2  2.50        -0.4136   0.0000                                                             
   Description                                                                                      
     l       E           TYP  RCUT    TYP  RCUT                                                     
     0    -26.7287425     23  1.900                                                                 
     0     -2.0862306     23  1.900                                                                 
     1    -13.5158719     23  2.500                                                                 
     1     -2.7211652     23  2.500                                                                 
     2     -0.4136171     23  2.500                                                                 
  local pseudopotential read in
  partial core-charges read in
  partial kinetic energy density read in
  atomic valenz-charges read in
  non local Contribution for L=           0  read in
    real space projection operators read in
  non local Contribution for L=           0  read in
    real space projection operators read in
  non local Contribution for L=           1  read in
    real space projection operators read in
  non local Contribution for L=           1  read in
    real space projection operators read in
  non local Contribution for L=           2  read in
    real space projection operators read in
    PAW grid and wavefunctions read in
 
   number of l-projection  operators is LMAX  =           5
   number of lm-projection operators is LMMAX =          13
 
 POTCAR:    PAW_PBE Ga_d 06Jul2010                
   VRHFIN =Ga: s2p1                                                                                 
   LEXCH  = PE                                                                                      
   EATOM  =  2148.8298 eV,  157.9345 Ry                                                             
                                                                                                    
   TITEL  = PAW_PBE Ga_d 06Jul2010                                                                  
   LULTRA =        F    use ultrasoft PP ?                                                          
   IUNSCR =        1    unscreen: 0-lin 1-nonlin 2-no                                               
   RPACOR =    1.700    partial core radius                                                         
   POMASS =   69.723; ZVAL   =   13.000    mass and valenz                                          
   RCORE  =    2.300    outmost cutoff radius                                                       
   RWIGS  =    2.300; RWIGS  =    1.217    wigner-seitz radius (au A)                               
   ENMAX  =  282.691; ENMIN  =  212.018 eV                                                          
   ICORE  =        3    local potential                                                             
   LCOR   =        T    correct aug charges                                                         
   LPAW   =        T    paw PP                                                                      
   EAUG   =  490.690                                                                                
   DEXC   =    0.000                                                                                
   RMAX   =    2.341    core radius for proj-oper                                                   
   RAUG   =    1.300    factor for augmentation sphere                                              
   RDEP   =    2.413    radius for radial grids                                                     
   RDEPT  =    1.856    core radius for aug-charge                                                  
                                                                                                    
   Atomic configuration                                                                             
    9 entries                                                                                       
     n  l   j            E        occ.                                                              
     1  0  0.50    -10228.7831   2.0000                                                             
     2  0  0.50     -1262.1604   2.0000                                                             
     2  1  1.50     -1098.6333   6.0000                                                             
     3  0  0.50      -148.1110   2.0000                                                             
     3  1  1.50       -98.8436   6.0000                                                             
     3  2  2.50       -19.1549  10.0000                                                             
     4  0  0.50        -8.9483   2.0000                                                             
     4  1  0.50        -2.5791   1.0000                                                             
     4  3  2.50        -2.7416   0.0000                                                             
   Description                                                                                      
     l       E           TYP  RCUT    TYP  RCUT                                                     
     2    -19.1549037     23  2.300                                                                 
     2     -5.4423304     23  2.300                                                                 
     0     -8.9483111     23  2.300                                                                 
     0     68.0291300     23  2.300                                                                 
     1     -2.5790802     23  2.100                                                                 
     1     81.6349560     23  2.300                                                                 
     3      6.8029130     23  2.300                                                                 
  local pseudopotential read in
  partial core-charges read in
  partial kinetic energy density read in
  atomic valenz-charges read in
  non local Contribution for L=           2  read in
    real space projection operators read in
  non local Contribution for L=           2  read in
    real space projection operators read in
  non local Contribution for L=           0  read in
    real space projection operators read in
  non local Contribution for L=           0  read in
    real space projection operators read in
  non local Contribution for L=           1  read in
    real space projection operators read in
  non local Contribution for L=           1  read in
    real space projection operators read in
    PAW grid and wavefunctions read in
 
   number of l-projection  operators is LMAX  =           6
   number of lm-projection operators is LMMAX =          18
 
 POTCAR:    PAW_PBE Se 06Sep2000                  
   VRHFIN =Se: s2p4                                                                                 
   LEXCH  = PE                                                                                      
   EATOM  =   257.1286 eV,   18.8984 Ry                                                             
                                                                                                    
   TITEL  = PAW_PBE Se 06Sep2000                                                                    
   LULTRA =        F    use ultrasoft PP ?                                                          
   IUNSCR =        1    unscreen: 0-lin 1-nonlin 2-no                                               
   RPACOR =    1.900    partial core radius                                                         
   POMASS =   78.960; ZVAL   =    6.000    mass and valenz                                          
   RCORE  =    2.100    outmost cutoff radius                                                       
   RWIGS  =    2.200; RWIGS  =    1.164    wigner-seitz radius (au A)                               
   ENMAX  =  211.555; ENMIN  =  158.666 eV                                                          
   ICORE  =        3    local potential                                                             
   LCOR   =        T    correct aug charges                                                         
   LPAW   =        T    paw PP                                                                      
   EAUG   =  446.842                                                                                
   DEXC   =    0.000                                                                                
   RMAX   =    2.147    core radius for proj-oper                                                   
   RAUG   =    1.300    factor for augmentation sphere                                              
   RDEP   =    2.177    radius for radial grids                                                     
   RDEPT  =    1.928    core radius for aug-charge                                                  
                                                                                                    
   Atomic configuration                                                                             
   10 entries                                                                                       
     n  l   j            E        occ.                                                              
     1  0  0.50    -12503.4787   2.0000                                                             
     2  0  0.50     -1606.9547   2.0000                                                             
     2  1  1.50     -1413.3140   6.0000                                                             
     3  0  0.50      -213.4885   2.0000                                                             
     3  1  1.50      -152.9538   6.0000                                                             
     3  2  2.50       -53.1221  10.0000                                                             
     4  0  0.50       -17.2865   2.0000                                                             
     4  1  0.50        -6.5110   4.0000                                                             
     4  2  2.50        -6.8029   0.0000                                                             
     4  3  2.50        -6.8029   0.0000                                                             
   Description                                                                                      
     l       E           TYP  RCUT    TYP  RCUT                                                     
     0    -17.2865377     23  2.100                                                                 
     0    -15.3094411     23  2.100                                                                 
     1     -6.5110275     23  2.100                                                                 
     1     -0.0695192     23  2.100                                                                 
     2     -6.8029130     23  2.100                                                                 
     3     -1.3605826      7  2.100                                                                 
  local pseudopotential read in
  partial core-charges read in
  partial kinetic energy density read in
  atomic valenz-charges read in
  non local Contribution for L=           0  read in
    real space projection operators read in
  non local Contribution for L=           0  read in
    real space projection operators read in
  non local Contribution for L=           1  read in
    real space projection operators read in
  non local Contribution for L=           1  read in
    real space projection operators read in
  non local Contribution for L=           2  read in
    real space projection operators read in
    PAW grid and wavefunctions read in
 
   number of l-projection  operators is LMAX  =           5
   number of lm-projection operators is LMMAX =          13
 
 -----------------------------------------------------------------------------
|                                                                             |
|               ----> ADVICE to this user running VASP <----                  |
|                                                                             |
|     You have a (more or less) 'large supercell' and for larger cells it     |
|     might be more efficient to use real-space projection operators.         |
|     Therefore, try LREAL= Auto in the INCAR file.                           |
|     Mind: For very accurate calculation, you might also keep the            |
|     reciprocal projection scheme (i.e. LREAL=.FALSE.).                      |
|                                                                             |
 -----------------------------------------------------------------------------

  PAW_PBE Cs_sv 08Apr2002               :
 energy of atom  1       EATOM= -555.6835
 kinetic energy error for atom=    0.0011 (will be added to EATOM!!)
  PAW_PBE Ga_d 06Jul2010                :
 energy of atom  2       EATOM=-2148.8298
 kinetic energy error for atom=    0.0008 (will be added to EATOM!!)
  PAW_PBE Se 06Sep2000                  :
 energy of atom  3       EATOM= -257.1286
 kinetic energy error for atom=    0.0004 (will be added to EATOM!!)
 
 
 POSCAR: Cs4 Ga4 Se12
  positions in direct lattice
  No initial velocities read in
 exchange correlation table for  LEXCH =        8
   RHO(1)=    0.500       N(1)  =     2000
   RHO(2)=  100.500       N(2)  =     4000
 


--------------------------------------------------------------------------------------------------------


 ion  position               nearest neighbor table
   1  0.747  0.081  0.714-
   2  0.253  0.581  0.786-
   3  0.253  0.919  0.286-
   4  0.747  0.419  0.214-
   5  0.182  0.227  0.643-  15 2.39  14 2.42  12 2.42  17 2.43
   6  0.818  0.727  0.857-  16 2.39  13 2.42  11 2.42  18 2.43
   7  0.818  0.773  0.357-  13 2.39  16 2.42  10 2.42  19 2.43
   8  0.182  0.273  0.143-  14 2.39  15 2.42   9 2.42  20 2.43
   9  0.293  0.426  0.349-  17 2.38   8 2.42
  10  0.707  0.926  0.151-  18 2.38   7 2.42
  11  0.707  0.574  0.651-  19 2.38   6 2.42
  12  0.293  0.074  0.849-  20 2.38   5 2.42
  13  0.001  0.830  0.690-   7 2.39   6 2.42
  14  0.999  0.330  0.810-   8 2.39   5 2.42
  15  0.999  0.170  0.310-   5 2.39   8 2.42
  16  0.001  0.670  0.190-   6 2.39   7 2.42
  17  0.452  0.325  0.639-   9 2.38   5 2.43
  18  0.548  0.825  0.861-  10 2.38   6 2.43
  19  0.548  0.675  0.361-  11 2.38   7 2.43
  20  0.452  0.175  0.139-  12 2.38   8 2.43
 
  LATTYP: Found a simple monoclinic cell.
 ALAT       =     6.7064635282
 B/A-ratio  =     1.9184810438
 C/A-ratio  =     1.1400965192
 COS(beta)  =    -0.2797501157
  
  Lattice vectors:
  
 A1 = (   0.0189752433,   0.0000000000,   6.7064366839)
 A2 = (   0.0000000000, -12.8662231499,  -0.0000000000)
 A3 = (   7.3346507022,   0.0000000000,  -2.1597350620)


Analysis of symmetry for initial positions (statically):
=====================================================================
 Subroutine PRICEL returns:
 Original cell was already a primitive cell.
 

 Routine SETGRP: Setting up the symmetry group for a 
 simple monoclinic supercell.


 Subroutine GETGRP returns: Found  4 space group operations
 (whereof  2 operations were pure point group operations)
 out of a pool of  4 trial point group operations.


The static configuration has the point symmetry S_2 .
 The point group associated with its full space group is C_2h.


Analysis of symmetry for dynamics (positions and initial velocities):
=====================================================================
 Subroutine PRICEL returns:
 Original cell was already a primitive cell.
 

 Routine SETGRP: Setting up the symmetry group for a 
 simple monoclinic supercell.


 Subroutine GETGRP returns: Found  4 space group operations
 (whereof  2 operations were pure point group operations)
 out of a pool of  4 trial point group operations.


The dynamic configuration has the point symmetry S_2 .
 The point group associated with its full space group is C_2h.


 Subroutine INISYM returns: Found  4 space group operations
 (whereof  2 operations are pure point group operations),
 and found     1 'primitive' translations


----------------------------------------------------------------------------------------

                                     Primitive cell                                     

  volume of cell :     633.4087

  direct lattice vectors                    reciprocal lattice vectors
     7.334650702  0.000000000 -2.159735062     0.136225650  0.000000000 -0.000385438
    -0.000000000 12.866223150  0.000000000     0.000000000  0.077722886  0.000000000
     0.018975243  0.000000000  6.706436684     0.043869990 -0.000000000  0.148986355

  length of vectors
     7.646015725 12.866223150  6.706463528     0.136226195  0.077722886  0.155311011

  position of ions in fractional coordinates (direct lattice)
     0.746590008  0.080735018  0.714308849
     0.253409992  0.580735018  0.785691151
     0.253409992  0.919264982  0.285691151
     0.746590008  0.419264982  0.214308849
     0.181631338  0.226808590  0.642744056
     0.818368662  0.726808590  0.857255944
     0.818368662  0.773191410  0.357255944
     0.181631338  0.273191410  0.142744056
     0.293072150  0.426421411  0.348547837
     0.706927850  0.926421411  0.151452163
     0.706927850  0.573578589  0.651452163
     0.293072150  0.073578589  0.848547837
     0.000932409  0.829922955  0.690171230
     0.999067591  0.329922955  0.809828770
     0.999067591  0.170077045  0.309828770
     0.000932409  0.670077045  0.190171230
     0.451984800  0.324596037  0.639142292
     0.548015200  0.824596037  0.860857708
     0.548015200  0.675403963  0.360857708
     0.451984800  0.175403963  0.139142292

  ion indices of the primitive-cell ions
   primitive index   ion index
                 1           1
                 2           2
                 3           3
                 4           4
                 5           5
                 6           6
                 7           7
                 8           8
                 9           9
                10          10
                11          11
                12          12
                13          13
                14          14
                15          15
                16          16
                17          17
                18          18
                19          19
                20          20

----------------------------------------------------------------------------------------

 
 
 KPOINTS: pymatgen with grid density = 501 / numbe

Automatic generation of k-mesh.
 Grid dimensions read from file:
 generate k-points for:    3    1    3

 Generating k-lattice:

  Cartesian coordinates                     Fractional coordinates (reciprocal lattice)
     0.045408550  0.000000000 -0.000128479     0.333333333  0.000000000  0.000000000
     0.000000000  0.077722886  0.000000000     0.000000000  1.000000000  0.000000000
     0.014623330 -0.000000000  0.049662118     0.000000000 -0.000000000  0.333333333

  Length of vectors
     0.045408732  0.077722886  0.051770337

  Shift w.r.t. Gamma in fractional coordinates (k-lattice)
     0.000000000  0.000000000  0.000000000

 TETIRR: Found     24 inequivalent tetrahedra from       54
 
 Subroutine IBZKPT returns following result:
 ===========================================
 
 Found      5 irreducible k-points:
 
 Following reciprocal coordinates:
            Coordinates               Weight
  0.000000  0.000000  0.000000      1.000000
  0.333333  0.000000  0.000000      2.000000
 -0.000000 -0.000000  0.333333      2.000000
  0.333333  0.000000  0.333333      2.000000
 -0.333333 -0.000000  0.333333      2.000000
 
 Following cartesian coordinates:
            Coordinates               Weight
  0.000000  0.000000  0.000000      1.000000
  0.045409  0.000000 -0.000128      2.000000
  0.014623 -0.000000  0.049662      2.000000
  0.060032  0.000000  0.049534      2.000000
 -0.030785 -0.000000  0.049791      2.000000
 
 
 Subroutine IBZKPT_HF returns following result:
 ==============================================
 
 Found      9 k-points in 1st BZ
 the following      9 k-points will be used (e.g. in the exchange kernel)
 Following reciprocal coordinates:   # in IRBZ
  0.000000  0.000000  0.000000    0.11111111   1 t-inv F
  0.333333  0.000000  0.000000    0.11111111   2 t-inv F
 -0.000000 -0.000000  0.333333    0.11111111   3 t-inv F
  0.333333  0.000000  0.333333    0.11111111   4 t-inv F
 -0.333333 -0.000000  0.333333    0.11111111   5 t-inv F
 -0.333333 -0.000000 -0.000000    0.11111111   2 t-inv F
  0.000000  0.000000 -0.333333    0.11111111   3 t-inv F
 -0.333333 -0.000000 -0.333333    0.11111111   4 t-inv F
  0.333333  0.000000 -0.333333    0.11111111   5 t-inv F
 -----------------------------------------------------------------------------
|                                                                             |
|           W    W    AA    RRRRR   N    N  II  N    N   GGGG   !!!           |
|           W    W   A  A   R    R  NN   N  II  NN   N  G    G  !!!           |
|           W    W  A    A  R    R  N N  N  II  N N  N  G       !!!           |
|           W WW W  AAAAAA  RRRRR   N  N N  II  N  N N  G  GGG   !            |
|           WW  WW  A    A  R   R   N   NN  II  N   NN  G    G                |
|           W    W  A    A  R    R  N    N  II  N    N   GGGG   !!!           |
|                                                                             |
|     The number of bands has been changed from the values supplied in        |
|     the INCAR file. This is a result of running the parallel version.       |
|     The orbitals not found in the WAVECAR file will be initialized with     |
|     random numbers, which is usually adequate. For correlated               |
|     calculations, however, you should redo the groundstate calculation.     |
|     I found NBANDS = 116. Now, NBANDS = 120.                                |
|                                                                             |
 -----------------------------------------------------------------------------



--------------------------------------------------------------------------------------------------------




 Dimension of arrays:
   k-points           NKPTS =      5   k-points in BZ     NKDIM =      9   number of bands    NBANDS=    120
   number of dos      NEDOS =   1433   number of ions     NIONS =     20
   non local maximal  LDIM  =      6   non local SUM 2l+1 LMDIM =     18
   total plane-waves  NPLWV = 470400
   max r-space proj   IRMAX =      1   max aug-charges    IRDMAX=  37325
   dimension x,y,z NGX =    70 NGY =  112 NGZ =   60
   dimension x,y,z NGXF=   140 NGYF=  224 NGZF=  120
   support grid    NGXF=   140 NGYF=  224 NGZF=  120
   ions per type =               4   4  12
   NGX,Y,Z   is equivalent  to a cutoff of  15.22, 14.47, 14.87 a.u.
   NGXF,Y,Z  is equivalent  to a cutoff of  30.44, 28.94, 29.75 a.u.

 SYSTEM =  unknown system                          
 POSCAR =  Cs4 Ga4 Se12                            

 Startparameter for this run:
   NWRITE =      2    write-flag & timer
   PREC   = accura    normal or accurate (medium, high low for compatibility)
   ISTART =      0    job   : 0-new  1-cont  2-samecut
   ICHARG =      2    charge: 1-file 2-atom 10-const
   ISPIN  =      1    spin polarized calculation?
   LNONCOLLINEAR =      F non collinear calculations
   LSORBIT =      F    spin-orbit coupling
   INIWAV =      1    electr: 0-lowe 1-rand  2-diag
   LASPH  =      T    aspherical Exc in radial PAW
 Electronic Relaxation 1
   ENCUT  =  680.0 eV  49.98 Ry    7.07 a.u.  16.26 27.36 14.26*2*pi/ulx,y,z
   ENINI  =  680.0     initial cutoff
   ENAUG  = 1360.0 eV  augmentation charge cutoff
   NELM   =    200;   NELMIN=  5; NELMDL=  0     # of ELM steps 
   EDIFF  = 0.1E-04   stopping-criterion for ELM
   LREAL  =      F    real-space projection
   NLSPLINE    = F    spline interpolate recip. space projectors
   LCOMPAT=      F    compatible to vasp.4.4
   GGA_COMPAT  = T    GGA compatible to vasp.4.4-vasp.4.6
   LMAXPAW     = -100 max onsite density
   LMAXMIX     =    4 max onsite mixed and CHGCAR
   VOSKOWN=      0    Vosko Wilk Nusair interpolation
   ROPT   =    0.00000   0.00000   0.00000
 Ionic relaxation
   EDIFFG = 0.1E-03   stopping-criterion for IOM
   NSW    =      0    number of steps for IOM
   NBLOCK =      1;   KBLOCK =      1    inner block; outer block 
   IBRION =     -1    ionic relax: 0-MD 1-quasi-New 2-CG
   NFREE  =      0    steps in history (QN), initial steepest desc. (CG)
   ISIF   =      0    stress and relaxation
   IWAVPR =     10    prediction:  0-non 1-charg 2-wave 3-comb
   ISYM   =      3    0-nonsym 1-usesym 2-fastsym
   LCORR  =      T    Harris-Foulkes like correction to forces

   POTIM  = 0.5000    time-step for ionic-motion
   TEIN   =    0.0    initial temperature
   TEBEG  =    0.0;   TEEND  =   0.0 temperature during run
   SMASS  =  -3.00    Nose mass-parameter (am)
   estimated Nose-frequenzy (Omega)   =  0.10E-29 period in steps = 0.13E+47 mass=  -0.134E-26a.u.
   SCALEE = 1.0000    scale energy and forces
   NPACO  =    256;   APACO  = 10.0  distance and # of slots for P.C.
   PSTRESS=    0.0 pullay stress

  Mass of Ions in am
   POMASS = 132.90 69.72 78.96
  Ionic Valenz
   ZVAL   =   9.00 13.00  6.00
  Atomic Wigner-Seitz radii
   RWIGS  =  -1.00 -1.00 -1.00
  virtual crystal weights 
   VCA    =   1.00  1.00  1.00
   NELECT =     160.0000    total number of electrons
   NUPDOWN=      -1.0000    fix difference up-down

 DOS related values:
   EMIN   =  10.00;   EMAX   =-10.00  energy-range for DOS
   EFERMI =   0.00;   METHOD = LEGACY      
   ISMEAR =    -5;   SIGMA  =   0.05  broadening in eV -4-tet -1-fermi 0-gaus

 Electronic relaxation 2 (details)
   IALGO  =     38    algorithm
   LDIAG  =      T    sub-space diagonalisation (order eigenvalues)
   LSUBROT=      F    optimize rotation matrix (better conditioning)
   TURBO    =      0    0=normal 1=particle mesh
   IRESTART =      0    0=no restart 2=restart with 2 vectors
   NREBOOT  =      0    no. of reboots
   NMIN     =      0    reboot dimension
   EREF     =   0.00    reference energy to select bands
   IMIX   =      1    mixing-type and parameters
     AMIX     =   0.40;   BMIX     =  1.00
     AMIX_MAG =   1.60;   BMIX_MAG =  1.00
     AMIN     =   0.10
     WC   =   100.;   INIMIX=   1;  MIXPRE=   1;  MAXMIX= -45

 Intra band minimization:
   WEIMIN = 0.0000     energy-eigenvalue tresh-hold
   EBREAK =  0.21E-07  absolut break condition
   DEPER  =   0.30     relativ break condition  

   TIME   =   0.40     timestep for ELM

  volume/ion in A,a.u.               =      31.67       213.72
  Fermi-wavevector in a.u.,A,eV,Ry     =   1.034872  1.955625 14.571308  1.070961
  Thomas-Fermi vector in A             =   2.169189
 
 Write flags
   LWAVE        =      F    write WAVECAR
   LDOWNSAMPLE  =      F    k-point downsampling of WAVECAR
   LCHARG       =      F    write CHGCAR
   LVTOT        =      T    write LOCPOT, total local potential
   LVHAR        =      F    write LOCPOT, Hartree potential only
   LELF         =      F    write electronic localiz. function (ELF)
   LORBIT       =     11    0 simple, 1 ext, 2 COOP (PROOUT), +10 PAW based schemes


 Dipole corrections
   LMONO  =      F    monopole corrections only (constant potential shift)
   LDIPOL =      F    correct potential (dipole corrections)
   IDIPOL =      0    1-x, 2-y, 3-z, 4-all directions 
   EPSILON=  1.0000000 bulk dielectric constant

 Exchange correlation treatment:
   GGA     =    PE    GGA type
   LEXCH   =     8    internal setting for exchange type
   LIBXC   =     F    Libxc                    
   VOSKOWN =     0    Vosko Wilk Nusair interpolation
   EXXOEP  =     0    0=HF, 1=EXX-LHF (local Hartree Fock) 2=EXX OEP
   LHFCALC =     T    Hartree Fock is set to
   LSYMGRAD=     F    symmetrize gradient (conserves proper symmetry)
   PRECFOCK=accur.    Normal, Fast or Accurate (Low or Medium for compatibility)
   LRHFCALC=     F    long range Hartree Fock
   LRSCOR  =     F    long range correlation only (use DFT for short range part)
   LTHOMAS =     F    Thomas Fermi screening in HF
   LMODELHF=     F    short range full HF, long range fraction AEXX
   FOCKCORR=     1    mode to apply convergence corrections
   LFOCKACE=     T    use Adeptively-Compressed-Exchange operator
   ENCUT4O =  -1.0   cutoff for four orbital integrals eV
   LMAXFOCK=     4    L truncation for augmentation on plane wave grid
   LMAXFOCKAE=  -1    L truncation for all-electron charge restoration on plane wave grid
   NMAXFOCKAE=   1    number of basis functions for all-electron charge restoration
   LFOCKAEDFT=     F  apply the AE augmentation even for DFT
   NKREDX  =     1    reduce k-point grid by
   NKREDY  =     1    reduce k-point grid by
   NKREDZ  =     1    reduce k-point grid by
   SHIFTRED=     F    shift reduced grid of Gamma
   HFKIDENT=     F    idential grid for each k-point
   ODDONLY =     F    use only odd q-grid points
   EVENONLY=     F    use only even q-grid points
   HFALPHA =   -1.0000 decay constant for conv. correction
   MCALPHA =    0.0000 extent of test-charge in conv. correction in multipole expansion
   AEXX    =    0.2500 exact exchange contribution
   HFSCREEN=    0.2000 screening length (either q_TF or 0.3 A-1)
   HFSCREENC=   0.2000 screening length for correlation (either q_TF or 0.3 A-1)
   HFRCUT  =    0.0000 spherical cutoff for potential kernel
   ALDAX   =    0.7500 LDA exchange part
   AGGAX   =    0.7500 GGA exchange part
   ALDAC   =    1.0000 LDA correlation
   AGGAC   =    1.0000 GGA correlation
   ENCUTFOCK=  -1.0 apply spherical cutoff to Coloumb kernel
   NBANDSGWLOW=     1    first orbital included in HF term
   NBLOCK_FOCK=    64    blocking factor in FOCK_ACC

 Linear response parameters
   LEPSILON=     F    determine dielectric tensor
   LRPA    =     F    only Hartree local field effects (RPA)
   LNABLA  =     F    use nabla operator in PAW spheres
   LVEL    =     F    velocity operator in full k-point grid
   CSHIFT  =0.0000    complex shift for real part using Kramers Kronig
   OMEGAMAX=  -1.0    maximum frequency
   DEG_THRESHOLD= 0.2000000E-02 threshold for treating states as degnerate
   RTIME   =   -0.100 relaxation time in fs
  (WPLASMAI=    0.000 imaginary part of plasma frequency in eV, 0.658/RTIME)
   DFIELD  = 0.0000000 0.0000000 0.0000000 field for delta impulse in time
 
  Optional k-point grid parameters
   LKPOINTS_OPT  =     F    use optional k-point grid
   KPOINTS_OPT_MODE=     1    mode for optional k-point grid
 
 Orbital magnetization related:
   ORBITALMAG=     F  switch on orbital magnetization
   LCHIMAG   =     F  perturbation theory with respect to B field
   DQ        =  0.001000  dq finite difference perturbation B field
   LLRAUG    =     F  two centre corrections for induced B field
   LBONE     =     F  B-component reconstruction in AE one-centre
   LVGVCALC  =     T  calculate vGv susceptibility
   LVGVAPPL  =     F  apply vGv susceptibility instead of pGv for G=0

 Random number generation:
   RANDOM_GENERATOR = DEFAULT
   PCG_SEED         = not used


--------------------------------------------------------------------------------------------------------


 Static calculation
 charge density and potential will be updated during run
 non-spin polarized calculation
 Variant of blocked Davidson
 Davidson routine will perform the subspace rotation
 perform sub-space diagonalisation
    after iterative eigenvector-optimisation
 Kerker-like  mixing scheme
 using additional bands           40
 reciprocal scheme for non local part
 use partial core corrections
 calculate Harris-corrections to forces 
   (improved forces if not selfconsistent)
 use gradient corrections 
 use of overlap-Matrix (Vanderbilt PP)
 Fermi weights with tetrahedron method with Bloechl corrections


--------------------------------------------------------------------------------------------------------


  energy-cutoff  :      680.00
  volume of cell :      633.41
      direct lattice vectors                 reciprocal lattice vectors
     7.334650702  0.000000000 -2.159735062     0.136225650  0.000000000 -0.000385438
    -0.000000000 12.866223150  0.000000000     0.000000000  0.077722886  0.000000000
     0.018975243  0.000000000  6.706436684     0.043869990 -0.000000000  0.148986355

  length of vectors
     7.646015725 12.866223150  6.706463528     0.136226195  0.077722886  0.155311011


 
 k-points in units of 2pi/SCALE and weight: pymatgen with grid density = 501 / numbe
   0.00000000  0.00000000  0.00000000       0.111
   0.04540855  0.00000000 -0.00012848       0.222
   0.01462333 -0.00000000  0.04966212       0.222
   0.06003188  0.00000000  0.04953364       0.222
  -0.03078522 -0.00000000  0.04979060       0.222
 
 k-points in reciprocal lattice and weights: pymatgen with grid density = 501 / numbe
   0.00000000  0.00000000  0.00000000       0.111
   0.33333333  0.00000000  0.00000000       0.222
  -0.00000000 -0.00000000  0.33333333       0.222
   0.33333333  0.00000000  0.33333333       0.222
  -0.33333333 -0.00000000  0.33333333       0.222
 
 position of ions in fractional coordinates (direct lattice) 
   0.74659001  0.08073502  0.71430885
   0.25340999  0.58073502  0.78569115
   0.25340999  0.91926498  0.28569115
   0.74659001  0.41926498  0.21430885
   0.18163134  0.22680859  0.64274406
   0.81836866  0.72680859  0.85725594
   0.81836866  0.77319141  0.35725594
   0.18163134  0.27319141  0.14274406
   0.29307215  0.42642141  0.34854784
   0.70692785  0.92642141  0.15145216
   0.70692785  0.57357859  0.65145216
   0.29307215  0.07357859  0.84854784
   0.00093241  0.82992296  0.69017123
   0.99906759  0.32992296  0.80982877
   0.99906759  0.17007704  0.30982877
   0.00093241  0.67007704  0.19017123
   0.45198480  0.32459604  0.63914229
   0.54801520  0.82459604  0.86085771
   0.54801520  0.67540396  0.36085771
   0.45198480  0.17540396  0.13914229
 
 position of ions in cartesian coordinates  (Angst):
   5.48953111  1.03875475  3.17803045
   1.87358245  7.47186633  4.72188951
   1.86409483 11.82746840  1.36867117
   5.48004349  5.39435682 -0.17518789
   1.34439865  2.91816993  3.91824675
   6.01871492  9.35128150  3.98167322
   6.00922730  9.94805322  0.62845487
   1.33491102  3.51494165  0.56502841
   2.15619563  5.48643303  1.70455580
   5.18794270 11.91954460 -0.51107252
   5.19743032  7.37979012  2.84214582
   2.16568325  0.94667855  5.05777414
   0.01993506 10.67797394  4.62657590
   7.34317851  4.24486236  3.27334406
   7.33369089  2.18824921 -0.07987428
   0.01044744  8.62136079  1.27335756
   3.32727851  4.17632504  3.31019989
   4.03583505 10.60943662  4.58972007
   4.02634743  8.68989811  1.23650173
   3.31779089  2.25678653 -0.04301845
 


--------------------------------------------------------------------------------------------------------


 k-point   1 :   0.0000 0.0000 0.0000  plane waves:   25535
 k-point   2 :   0.3333 0.0000 0.0000  plane waves:   25496
 k-point   3 :  -0.0000-0.0000 0.3333  plane waves:   25499
 k-point   4 :   0.3333 0.0000 0.3333  plane waves:   25522
 k-point   5 :  -0.3333-0.0000 0.3333  plane waves:   25501

 maximum and minimum number of plane-waves per node :      1313     1243

 maximum number of plane-waves:     25535
 maximum index in each direction: 
   IXMAX=   16   IYMAX=   27   IZMAX=   14
   IXMIN=  -16   IYMIN=  -27   IZMIN=  -14


 parallel 3D FFT for wavefunctions:
    minimum data exchange during FFTs selected (reduces bandwidth)
 parallel 3D FFT for charge:
    minimum data exchange during FFTs selected (reduces bandwidth)

 
 Radii for the augmentation spheres in the non-local exchange
 for species   1 augmentation radius   1.414 (default was   1.131)
       energy cutoff for augmentation   2720.0
 for species   2 augmentation radius   1.289 (default was   1.031)
       energy cutoff for augmentation   2720.0
 for species   3 augmentation radius   1.351 (default was   1.081)
       energy cutoff for augmentation   2720.0

 real space projection operators:
  total allocation   :      30040.62 KBytes
  max/ min on nodes  :       1733.98       1257.42

 Maximum index for augmentation-charges in exchange          626
  SETUP_FOCK is finished

 total amount of memory used by VASP MPI-rank0    48560. kBytes
=======================================================================

   base      :      30000. kBytes
   nonl-proj :       3288. kBytes
   fftplans  :       3292. kBytes
   grid      :       4566. kBytes
   one-center:         15. kBytes
   HF        :         64. kBytes
   nonlr-proj:       5185. kBytes
   wavefun   :       2150. kBytes
 
     INWAV:  cpu time      0.0000: real time      0.0001
 initial charge density was supplied:
 charge density of overlapping atoms calculated
 number of electron     160.0000000 magnetization 
 keeping initial charge density in first step


--------------------------------------------------------------------------------------------------------


 Maximum index for augmentation-charges         1224 (set IRDMAX)


--------------------------------------------------------------------------------------------------------


 First call to EWALD:  gamma=   0.206
 Maximum number of real-space cells 3x 2x 4
 Maximum number of reciprocal cells 2x 4x 2

    FEWALD:  cpu time      0.0018: real time      0.0019


--------------------------------------- Ionic step        1  -------------------------------------------




--------------------------------------- Iteration      1(   1)  ---------------------------------------


    POTLOK:  cpu time      0.0459: real time      0.1382
    SETDIJ:  cpu time      0.1579: real time      0.1587
     EDDAV:  cpu time      1.0799: real time      2.3635
 BZINTS: Fermi energy:   19.046329;  160.000000 electrons
         Band energy: 0.462194E+03;  BLOECHL correction:   -0.633772
       DOS:  cpu time      0.0069: real time      0.0069
    --------------------------------------------
      LOOP:  cpu time      1.2906: real time      2.6673

 eigenvalue-minimisations  :  1284
 total energy-change (2. order) :-0.1176991E+05  (-0.7286120E+04)
 number of electron     160.0000000 magnetization 
 augmentation part      160.0000000 magnetization 

 Free energy of the ion-electron system (eV)
  ---------------------------------------------------
  alpha Z        PSCENC =       482.94513547
  Ewald energy   TEWEN  =     -7601.08312602
  -Hartree energ DENC   =     -4823.46666440
  -exchange      EXHF   =         0.00000000
  -V(xc)+E(xc)   XCENC  =       210.35855077
  PAW double counting   =     10635.01128099   -25009.60868130
  entropy T*S    EENTRO =         0.00000000
  eigenvalues    EBANDS =       462.19429763
  atomic energy  EATOM  =     13873.74036856
  Solvation  Ediel_sol  =         0.00000000
  ---------------------------------------------------
  free energy    TOTEN  =    -11769.90883831 eV

  energy without entropy =   -11769.90883831  energy(sigma->0) =   -11769.90883831
  exchange ACFDT corr.  =         0.00000000  see jH, gK, PRB 81, 115126


--------------------------------------------------------------------------------------------------------




--------------------------------------- Iteration      1(   2)  ---------------------------------------


     EDDAV:  cpu time      0.6721: real time      0.6782
 BZINTS: Fermi energy:    5.522845;  160.000000 electrons
         Band energy:-0.104024E+04;  BLOECHL correction:   -0.153027
       DOS:  cpu time      0.0059: real time      0.0059
    --------------------------------------------
      LOOP:  cpu time      0.6780: real time      0.6841

 eigenvalue-minimisations  :  1320
 total energy-change (2. order) :-0.1502438E+04  (-0.1374803E+04)
 number of electron     160.0000000 magnetization 
 augmentation part      160.0000000 magnetization 

 Free energy of the ion-electron system (eV)
  ---------------------------------------------------
  alpha Z        PSCENC =       482.94513547
  Ewald energy   TEWEN  =     -7601.08312602
  -Hartree energ DENC   =     -4823.46666440
  -exchange      EXHF   =         0.00000000
  -V(xc)+E(xc)   XCENC  =       210.35855077
  PAW double counting   =     10635.01128099   -25009.60868130
  entropy T*S    EENTRO =         0.00000000
  eigenvalues    EBANDS =     -1040.24339676
  atomic energy  EATOM  =     13873.74036856
  Solvation  Ediel_sol  =         0.00000000
  ---------------------------------------------------
  free energy    TOTEN  =    -13272.34653271 eV

  energy without entropy =   -13272.34653271  energy(sigma->0) =   -13272.34653271
  exchange ACFDT corr.  =         0.00000000  see jH, gK, PRB 81, 115126


--------------------------------------------------------------------------------------------------------




--------------------------------------- Iteration      1(   3)  ---------------------------------------


     EDDAV:  cpu time      0.7016: real time      0.7179
 BZINTS: Fermi energy:    0.963041;  160.000000 electrons
         Band energy:-0.137306E+04;  BLOECHL correction:    0.000000
       DOS:  cpu time      0.0036: real time      0.0036
    --------------------------------------------
      LOOP:  cpu time      0.7052: real time      0.7215

 eigenvalue-minimisations  :  1440
 total energy-change (2. order) :-0.3328169E+03  (-0.3224426E+03)
 number of electron     160.0000000 magnetization 
 augmentation part      160.0000000 magnetization 

 Free energy of the ion-electron system (eV)
  ---------------------------------------------------
  alpha Z        PSCENC =       482.94513547
  Ewald energy   TEWEN  =     -7601.08312602
  -Hartree energ DENC   =     -4823.46666440
  -exchange      EXHF   =         0.00000000
  -V(xc)+E(xc)   XCENC  =       210.35855077
  PAW double counting   =     10635.01128099   -25009.60868130
  entropy T*S    EENTRO =         0.00000000
  eigenvalues    EBANDS =     -1373.06033804
  atomic energy  EATOM  =     13873.74036856
  Solvation  Ediel_sol  =         0.00000000
  ---------------------------------------------------
  free energy    TOTEN  =    -13605.16347399 eV

  energy without entropy =   -13605.16347399  energy(sigma->0) =   -13605.16347399
  exchange ACFDT corr.  =         0.00000000  see jH, gK, PRB 81, 115126


--------------------------------------------------------------------------------------------------------




--------------------------------------- Iteration      1(   4)  ---------------------------------------


     EDDAV:  cpu time      0.7314: real time      0.7488
 BZINTS: Fermi energy:    0.557975;  160.000000 electrons
         Band energy:-0.139844E+04;  BLOECHL correction:    0.000000
       DOS:  cpu time      0.0034: real time      0.0034
    --------------------------------------------
      LOOP:  cpu time      0.7348: real time      0.7522

 eigenvalue-minimisations  :  1524
 total energy-change (2. order) :-0.2538389E+02  (-0.2513348E+02)
 number of electron     160.0000000 magnetization 
 augmentation part      160.0000000 magnetization 

 Free energy of the ion-electron system (eV)
  ---------------------------------------------------
  alpha Z        PSCENC =       482.94513547
  Ewald energy   TEWEN  =     -7601.08312602
  -Hartree energ DENC   =     -4823.46666440
  -exchange      EXHF   =         0.00000000
  -V(xc)+E(xc)   XCENC  =       210.35855077
  PAW double counting   =     10635.01128099   -25009.60868130
  entropy T*S    EENTRO =         0.00000000
  eigenvalues    EBANDS =     -1398.44422318
  atomic energy  EATOM  =     13873.74036856
  Solvation  Ediel_sol  =         0.00000000
  ---------------------------------------------------
  free energy    TOTEN  =    -13630.54735913 eV

  energy without entropy =   -13630.54735913  energy(sigma->0) =   -13630.54735913
  exchange ACFDT corr.  =         0.00000000  see jH, gK, PRB 81, 115126


--------------------------------------------------------------------------------------------------------




--------------------------------------- Iteration      1(   5)  ---------------------------------------


    POTLOK:  cpu time      0.1002: real time      0.1168
    SETDIJ:  cpu time      0.4277: real time      0.4287
     EDDAV:  cpu time    127.6145: real time    128.0133
 BZINTS: Fermi energy:    0.450852;  160.000000 electrons
         Band energy:-0.138801E+04;  BLOECHL correction:    0.000000
       DOS:  cpu time      0.0037: real time      0.0039
    CHARGE:  cpu time      0.0672: real time      0.1027
    MIXING:  cpu time      0.0008: real time      0.0008
    --------------------------------------------
      LOOP:  cpu time    128.2141: real time    128.6662

 eigenvalue-minimisations  :  1680
 total energy-change (2. order) : 0.1353998E+05  (-0.4831517E+01)
 number of electron     160.0000007 magnetization 
 augmentation part       12.4142852 magnetization 

 Free energy of the ion-electron system (eV)
  ---------------------------------------------------
  alpha Z        PSCENC =       482.94513547
  Ewald energy   TEWEN  =     -7601.08312602
  -Hartree energ DENC   =     -4823.46666440
  -exchange      EXHF   =       332.76599211
  -V(xc)+E(xc)   XCENC  =       151.22727414
  PAW double counting   =     10688.30355960   -11806.99569412
  entropy T*S    EENTRO =         0.00000000
  eigenvalues    EBANDS =     -1388.00625246
  atomic energy  EATOM  =     13873.74036856
  Solvation  Ediel_sol  =         0.00000000
  ---------------------------------------------------
  free energy    TOTEN  =       -90.56940713 eV

  energy without entropy =      -90.56940713  energy(sigma->0) =      -90.56940713
  exchange ACFDT corr.  =         0.00000000  see jH, gK, PRB 81, 115126


--------------------------------------------------------------------------------------------------------




--------------------------------------- Iteration      1(   6)  ---------------------------------------


    POTLOK:  cpu time      0.0785: real time      0.0916
    SETDIJ:  cpu time      0.4212: real time      0.4222
     EDDAV:  cpu time    128.5368: real time    128.8534
 BZINTS: Fermi energy:    0.802253;  160.000000 electrons
         Band energy:-0.137249E+04;  BLOECHL correction:    0.000000
       DOS:  cpu time      0.0036: real time      0.0037
    CHARGE:  cpu time      0.0659: real time      0.0661
    MIXING:  cpu time      0.0004: real time      0.0004
    --------------------------------------------
      LOOP:  cpu time    129.1064: real time    129.4374

 eigenvalue-minimisations  :  1452
 total energy-change (2. order) : 0.1617200E+01  (-0.5800474E+00)
 number of electron     160.0000011 magnetization 
 augmentation part       12.7788941 magnetization 

 Free energy of the ion-electron system (eV)
  ---------------------------------------------------
  alpha Z        PSCENC =       482.94513547
  Ewald energy   TEWEN  =     -7601.08312602
  -Hartree energ DENC   =     -4825.25079493
  -exchange      EXHF   =       328.07097728
  -V(xc)+E(xc)   XCENC  =       152.62607723
  PAW double counting   =     11822.71450966   -12950.23019042
  entropy T*S    EENTRO =         0.00000000
  eigenvalues    EBANDS =     -1372.48516409
  atomic energy  EATOM  =     13873.74036856
  Solvation  Ediel_sol  =         0.00000000
  ---------------------------------------------------
  free energy    TOTEN  =       -88.95220726 eV

  energy without entropy =      -88.95220726  energy(sigma->0) =      -88.95220726
  exchange ACFDT corr.  =         0.00000000  see jH, gK, PRB 81, 115126


--------------------------------------------------------------------------------------------------------




--------------------------------------- Iteration      1(   7)  ---------------------------------------


    POTLOK:  cpu time      0.1134: real time      0.1221
    SETDIJ:  cpu time      0.4351: real time      0.4362
     EDDAV:  cpu time    128.0054: real time    128.3236
 BZINTS: Fermi energy:    0.981888;  160.000000 electrons
         Band energy:-0.136389E+04;  BLOECHL correction:    0.000000
       DOS:  cpu time      0.0038: real time      0.0040
    CHARGE:  cpu time      0.0814: real time      0.0816
    MIXING:  cpu time      0.0005: real time      0.0005
    --------------------------------------------
      LOOP:  cpu time    128.6396: real time    128.9680

 eigenvalue-minimisations  :  1572
 total energy-change (2. order) : 0.2407184E+00  (-0.1922509E+00)
 number of electron     160.0000013 magnetization 
 augmentation part       12.9023944 magnetization 

 Free energy of the ion-electron system (eV)
  ---------------------------------------------------
  alpha Z        PSCENC =       482.94513547
  Ewald energy   TEWEN  =     -7601.08312602
  -Hartree energ DENC   =     -4826.85046941
  -exchange      EXHF   =       326.06689444
  -V(xc)+E(xc)   XCENC  =       153.44351151
  PAW double counting   =     12764.04580774   -13897.13367562
  entropy T*S    EENTRO =         0.00000000
  eigenvalues    EBANDS =     -1363.88593554
  atomic energy  EATOM  =     13873.74036856
  Solvation  Ediel_sol  =         0.00000000
  ---------------------------------------------------
  free energy    TOTEN  =       -88.71148887 eV

  energy without entropy =      -88.71148887  energy(sigma->0) =      -88.71148887
  exchange ACFDT corr.  =         0.00000000  see jH, gK, PRB 81, 115126


--------------------------------------------------------------------------------------------------------




--------------------------------------- Iteration      1(   8)  ---------------------------------------


    POTLOK:  cpu time      0.1056: real time      0.1171
    SETDIJ:  cpu time      0.4201: real time      0.4211
     EDDAV:  cpu time    128.7311: real time    129.0363
 BZINTS: Fermi energy:    1.068235;  160.000000 electrons
         Band energy:-0.135955E+04;  BLOECHL correction:    0.000000
       DOS:  cpu time      0.0036: real time      0.0038
    CHARGE:  cpu time      0.0570: real time      0.0572
    MIXING:  cpu time      0.0004: real time      0.0004
    --------------------------------------------
      LOOP:  cpu time    129.3178: real time    129.6359

 eigenvalue-minimisations  :  1512
 total energy-change (2. order) : 0.6313777E-01  (-0.2009072E-01)
 number of electron     160.0000014 magnetization 
 augmentation part       12.9042106 magnetization 

 Free energy of the ion-electron system (eV)
  ---------------------------------------------------
  alpha Z        PSCENC =       482.94513547
  Ewald energy   TEWEN  =     -7601.08312602
  -Hartree energ DENC   =     -4827.83819517
  -exchange      EXHF   =       325.00364705
  -V(xc)+E(xc)   XCENC  =       153.88577958
  PAW double counting   =     13469.20375726   -14604.95651390
  entropy T*S    EENTRO =         0.00000000
  eigenvalues    EBANDS =     -1359.54920392
  atomic energy  EATOM  =     13873.74036856
  Solvation  Ediel_sol  =         0.00000000
  ---------------------------------------------------
  free energy    TOTEN  =       -88.64835110 eV

  energy without entropy =      -88.64835110  energy(sigma->0) =      -88.64835110
  exchange ACFDT corr.  =         0.00000000  see jH, gK, PRB 81, 115126


--------------------------------------------------------------------------------------------------------




--------------------------------------- Iteration      1(   9)  ---------------------------------------


    POTLOK:  cpu time      0.1043: real time      0.1165
    SETDIJ:  cpu time      0.4191: real time      0.4200
     EDDAV:  cpu time    127.9362: real time    128.2388
 BZINTS: Fermi energy:    1.118587;  160.000000 electrons
         Band energy:-0.135753E+04;  BLOECHL correction:    0.000000
       DOS:  cpu time      0.0037: real time      0.0038
    CHARGE:  cpu time      0.0573: real time      0.0575
    MIXING:  cpu time      0.0003: real time      0.0003
    --------------------------------------------
      LOOP:  cpu time    128.5210: real time    128.8370

 eigenvalue-minimisations  :  1740
 total energy-change (2. order) : 0.3390133E-01  (-0.3657597E-02)
 number of electron     160.0000015 magnetization 
 augmentation part       12.8938323 magnetization 

 Free energy of the ion-electron system (eV)
  ---------------------------------------------------
  alpha Z        PSCENC =       482.94513547
  Ewald energy   TEWEN  =     -7601.08312602
  -Hartree energ DENC   =     -4828.37849986
  -exchange      EXHF   =       324.77961235
  -V(xc)+E(xc)   XCENC  =       154.16697203
  PAW double counting   =     13917.72643908   -15054.97645131
  entropy T*S    EENTRO =         0.00000000
  eigenvalues    EBANDS =     -1357.53490008
  atomic energy  EATOM  =     13873.74036856
  Solvation  Ediel_sol  =         0.00000000
  ---------------------------------------------------
  free energy    TOTEN  =       -88.61444978 eV

  energy without entropy =      -88.61444978  energy(sigma->0) =      -88.61444978
  exchange ACFDT corr.  =         0.00000000  see jH, gK, PRB 81, 115126


--------------------------------------------------------------------------------------------------------




--------------------------------------- Iteration      1(  10)  ---------------------------------------


    POTLOK:  cpu time      0.1032: real time      0.1178
    SETDIJ:  cpu time      0.4208: real time      0.4218
     EDDAV:  cpu time    127.8451: real time    128.1471
 BZINTS: Fermi energy:    1.136073;  160.000000 electrons
         Band energy:-0.135674E+04;  BLOECHL correction:    0.000000
       DOS:  cpu time      0.0038: real time      0.0039
    CHARGE:  cpu time      0.0660: real time      0.0662
    MIXING:  cpu time      0.0006: real time      0.0006
    --------------------------------------------
      LOOP:  cpu time    128.4396: real time    128.7575

 eigenvalue-minimisations  :  1488
 total energy-change (2. order) : 0.9507771E-02  (-0.1290557E-02)
 number of electron     160.0000016 magnetization 
 augmentation part       12.8849313 magnetization 

 Free energy of the ion-electron system (eV)
  ---------------------------------------------------
  alpha Z        PSCENC =       482.94513547
  Ewald energy   TEWEN  =     -7601.08312602
  -Hartree energ DENC   =     -4828.51536261
  -exchange      EXHF   =       324.75027675
  -V(xc)+E(xc)   XCENC  =       154.35535015
  PAW double counting   =     14184.81049404   -15322.86711853
  entropy T*S    EENTRO =         0.00000000
  eigenvalues    EBANDS =     -1356.74095982
  atomic energy  EATOM  =     13873.74036856
  Solvation  Ediel_sol  =         0.00000000
  ---------------------------------------------------
  free energy    TOTEN  =       -88.60494200 eV

  energy without entropy =      -88.60494200  energy(sigma->0) =      -88.60494200
  exchange ACFDT corr.  =         0.00000000  see jH, gK, PRB 81, 115126


--------------------------------------------------------------------------------------------------------




--------------------------------------- Iteration      1(  11)  ---------------------------------------


    POTLOK:  cpu time      0.1062: real time      0.1216
    SETDIJ:  cpu time      0.4377: real time      0.4387
     EDDAV:  cpu time    128.4827: real time    128.7981
 BZINTS: Fermi energy:    1.157477;  160.000000 electrons
         Band energy:-0.135634E+04;  BLOECHL correction:    0.000000
       DOS:  cpu time      0.0037: real time      0.0038
    CHARGE:  cpu time      0.0573: real time      0.0574
    MIXING:  cpu time      0.0005: real time      0.0004
    --------------------------------------------
      LOOP:  cpu time    129.0881: real time    129.4201

 eigenvalue-minimisations  :  1680
 total energy-change (2. order) : 0.2223254E-02  (-0.3805968E-03)
 number of electron     160.0000016 magnetization 
 augmentation part       12.8812779 magnetization 

 Free energy of the ion-electron system (eV)
  ---------------------------------------------------
  alpha Z        PSCENC =       482.94513547
  Ewald energy   TEWEN  =     -7601.08312602
  -Hartree energ DENC   =     -4828.56384023
  -exchange      EXHF   =       324.75840181
  -V(xc)+E(xc)   XCENC  =       154.47933510
  PAW double counting   =     14338.44689756   -15476.98368341
  entropy T*S    EENTRO =         0.00000000
  eigenvalues    EBANDS =     -1356.34220759
  atomic energy  EATOM  =     13873.74036856
  Solvation  Ediel_sol  =         0.00000000
  ---------------------------------------------------
  free energy    TOTEN  =       -88.60271875 eV

  energy without entropy =      -88.60271875  energy(sigma->0) =      -88.60271875
  exchange ACFDT corr.  =         0.00000000  see jH, gK, PRB 81, 115126


--------------------------------------------------------------------------------------------------------




--------------------------------------- Iteration      1(  12)  ---------------------------------------


    POTLOK:  cpu time      0.0981: real time      0.1117
    SETDIJ:  cpu time      0.4195: real time      0.4205
     EDDAV:  cpu time    127.8940: real time    128.2111
 BZINTS: Fermi energy:    1.156083;  160.000000 electrons
         Band energy:-0.135602E+04;  BLOECHL correction:    0.000000
       DOS:  cpu time      0.0037: real time      0.0039
    CHARGE:  cpu time      0.0618: real time      0.0619
    MIXING:  cpu time      0.0004: real time      0.0004
    --------------------------------------------
      LOOP:  cpu time    128.4775: real time    128.8094

 eigenvalue-minimisations  :  1440
 total energy-change (2. order) : 0.3719513E-03  (-0.1404146E-03)
 number of electron     160.0000016 magnetization 
 augmentation part       12.8797551 magnetization 

 Free energy of the ion-electron system (eV)
  ---------------------------------------------------
  alpha Z        PSCENC =       482.94513547
  Ewald energy   TEWEN  =     -7601.08312602
  -Hartree energ DENC   =     -4828.66182572
  -exchange      EXHF   =       324.76041373
  -V(xc)+E(xc)   XCENC  =       154.56736984
  PAW double counting   =     14426.88978302   -15565.73788785
  entropy T*S    EENTRO =         0.00000000
  eigenvalues    EBANDS =     -1356.02257782
  atomic energy  EATOM  =     13873.74036856
  Solvation  Ediel_sol  =         0.00000000
  ---------------------------------------------------
  free energy    TOTEN  =       -88.60234680 eV

  energy without entropy =      -88.60234680  energy(sigma->0) =      -88.60234680
  exchange ACFDT corr.  =         0.00000000  see jH, gK, PRB 81, 115126


--------------------------------------------------------------------------------------------------------




--------------------------------------- Iteration      1(  13)  ---------------------------------------


    POTLOK:  cpu time      0.1020: real time      0.1154
    SETDIJ:  cpu time      0.4218: real time      0.4227
     EDDAV:  cpu time    127.4946: real time    127.7967
 BZINTS: Fermi energy:    1.157829;  160.000000 electrons
         Band energy:-0.135572E+04;  BLOECHL correction:    0.000000
       DOS:  cpu time      0.0036: real time      0.0038
    CHARGE:  cpu time      0.0591: real time      0.0592
    MIXING:  cpu time      0.0003: real time      0.0003
    --------------------------------------------
      LOOP:  cpu time    128.0813: real time    128.3981

 eigenvalue-minimisations  :  1584
 total energy-change (2. order) :-0.6744186E-04  (-0.6705778E-04)
 number of electron     160.0000016 magnetization 
 augmentation part       12.8789088 magnetization 

 Free energy of the ion-electron system (eV)
  ---------------------------------------------------
  alpha Z        PSCENC =       482.94513547
  Ewald energy   TEWEN  =     -7601.08312602
  -Hartree energ DENC   =     -4828.80164678
  -exchange      EXHF   =       324.75743721
  -V(xc)+E(xc)   XCENC  =       154.62141794
  PAW double counting   =     14478.82804009   -15617.88664261
  entropy T*S    EENTRO =         0.00000000
  eigenvalues    EBANDS =     -1355.72339809
  atomic energy  EATOM  =     13873.74036856
  Solvation  Ediel_sol  =         0.00000000
  ---------------------------------------------------
  free energy    TOTEN  =       -88.60241424 eV

  energy without entropy =      -88.60241424  energy(sigma->0) =      -88.60241424
  exchange ACFDT corr.  =         0.00000000  see jH, gK, PRB 81, 115126


--------------------------------------------------------------------------------------------------------




--------------------------------------- Iteration      1(  14)  ---------------------------------------


    POTLOK:  cpu time      0.0796: real time      0.0925
    SETDIJ:  cpu time      0.4206: real time      0.4216
     EDDAV:  cpu time    127.9045: real time    128.2095
 BZINTS: Fermi energy:    1.156484;  160.000000 electrons
         Band energy:-0.135549E+04;  BLOECHL correction:    0.000000
       DOS:  cpu time      0.0036: real time      0.0038
    CHARGE:  cpu time      0.0681: real time      0.0682
    MIXING:  cpu time      0.0004: real time      0.0004
    --------------------------------------------
      LOOP:  cpu time    128.4768: real time    128.7960

 eigenvalue-minimisations  :  1440
 total energy-change (2. order) :-0.1398650E-03  (-0.2632845E-04)
 number of electron     160.0000016 magnetization 
 augmentation part       12.8784949 magnetization 

 Free energy of the ion-electron system (eV)
  ---------------------------------------------------
  alpha Z        PSCENC =       482.94513547
  Ewald energy   TEWEN  =     -7601.08312602
  -Hartree energ DENC   =     -4828.92987312
  -exchange      EXHF   =       324.75231475
  -V(xc)+E(xc)   XCENC  =       154.65483299
  PAW double counting   =     14508.80502400   -15647.99802244
  entropy T*S    EENTRO =         0.00000000
  eigenvalues    EBANDS =     -1355.48920829
  atomic energy  EATOM  =     13873.74036856
  Solvation  Ediel_sol  =         0.00000000
  ---------------------------------------------------
  free energy    TOTEN  =       -88.60255411 eV

  energy without entropy =      -88.60255411  energy(sigma->0) =      -88.60255411
  exchange ACFDT corr.  =         0.00000000  see jH, gK, PRB 81, 115126


--------------------------------------------------------------------------------------------------------




--------------------------------------- Iteration      1(  15)  ---------------------------------------


    POTLOK:  cpu time      0.1070: real time      0.1186
    SETDIJ:  cpu time      0.4434: real time      0.4445
     EDDAV:  cpu time    129.0018: real time    129.3179
 BZINTS: Fermi energy:    1.176035;  160.000000 electrons
         Band energy:-0.135533E+04;  BLOECHL correction:    0.000000
       DOS:  cpu time      0.0037: real time      0.0038
    CHARGE:  cpu time      0.0668: real time      0.0670
    MIXING:  cpu time      0.0007: real time      0.0007
    --------------------------------------------
      LOOP:  cpu time    129.6234: real time    129.9524

 eigenvalue-minimisations  :  1488
 total energy-change (2. order) :-0.1142899E-03  (-0.1185903E-04)
 number of electron     160.0000016 magnetization 
 augmentation part       12.8782877 magnetization 

 Free energy of the ion-electron system (eV)
  ---------------------------------------------------
  alpha Z        PSCENC =       482.94513547
  Ewald energy   TEWEN  =     -7601.08312602
  -Hartree energ DENC   =     -4829.02948503
  -exchange      EXHF   =       324.74863964
  -V(xc)+E(xc)   XCENC  =       154.67767775
  PAW double counting   =     14526.02240266   -15665.29703213
  entropy T*S    EENTRO =         0.00000000
  eigenvalues    EBANDS =     -1355.32724929
  atomic energy  EATOM  =     13873.74036856
  Solvation  Ediel_sol  =         0.00000000
  ---------------------------------------------------
  free energy    TOTEN  =       -88.60266840 eV

  energy without entropy =      -88.60266840  energy(sigma->0) =      -88.60266840
  exchange ACFDT corr.  =         0.00000000  see jH, gK, PRB 81, 115126


--------------------------------------------------------------------------------------------------------




--------------------------------------- Iteration      1(  16)  ---------------------------------------


    POTLOK:  cpu time      0.1042: real time      0.1150
    SETDIJ:  cpu time      0.4210: real time      0.4220
     EDDAV:  cpu time    127.3027: real time    127.6142
 BZINTS: Fermi energy:    1.174551;  160.000000 electrons
         Band energy:-0.135522E+04;  BLOECHL correction:    0.000000
       DOS:  cpu time      0.0037: real time      0.0038
    CHARGE:  cpu time      0.0666: real time      0.0668
    MIXING:  cpu time      0.0005: real time      0.0005
    --------------------------------------------
      LOOP:  cpu time    127.8987: real time    128.2223

 eigenvalue-minimisations  :  1272
 total energy-change (2. order) :-0.6832321E-04  (-0.4925907E-05)
 number of electron     160.0000016 magnetization 
 augmentation part       12.8781142 magnetization 

 Free energy of the ion-electron system (eV)
  ---------------------------------------------------
  alpha Z        PSCENC =       482.94513547
  Ewald energy   TEWEN  =     -7601.08312602
  -Hartree energ DENC   =     -4829.10145337
  -exchange      EXHF   =       324.74637359
  -V(xc)+E(xc)   XCENC  =       154.69133457
  PAW double counting   =     14536.10519067   -15675.42736238
  entropy T*S    EENTRO =         0.00000000
  eigenvalues    EBANDS =     -1355.21919779
  atomic energy  EATOM  =     13873.74036856
  Solvation  Ediel_sol  =         0.00000000
  ---------------------------------------------------
  free energy    TOTEN  =       -88.60273672 eV

  energy without entropy =      -88.60273672  energy(sigma->0) =      -88.60273672
  exchange ACFDT corr.  =         0.00000000  see jH, gK, PRB 81, 115126


--------------------------------------------------------------------------------------------------------




--------------------------------------- Iteration      1(  17)  ---------------------------------------


    POTLOK:  cpu time      0.0780: real time      0.0904
    SETDIJ:  cpu time      0.4210: real time      0.4220
     EDDAV:  cpu time    127.9954: real time    128.3136
 BZINTS: Fermi energy:    1.173072;  160.000000 electrons
         Band energy:-0.135515E+04;  BLOECHL correction:    0.000000
       DOS:  cpu time      0.0037: real time      0.0039
    CHARGE:  cpu time      0.0580: real time      0.0581
    MIXING:  cpu time      0.0004: real time      0.0004
    --------------------------------------------
      LOOP:  cpu time    128.5565: real time    128.8884

 eigenvalue-minimisations  :  1320
 total energy-change (2. order) :-0.3947427E-04  (-0.2373455E-05)
 number of electron     160.0000016 magnetization 
 augmentation part       12.8780873 magnetization 

 Free energy of the ion-electron system (eV)
  ---------------------------------------------------
  alpha Z        PSCENC =       482.94513547
  Ewald energy   TEWEN  =     -7601.08312602
  -Hartree energ DENC   =     -4829.15297688
  -exchange      EXHF   =       324.74506689
  -V(xc)+E(xc)   XCENC  =       154.70021499
  PAW double counting   =     14541.75963099   -15681.10968472
  entropy T*S    EENTRO =         0.00000000
  eigenvalues    EBANDS =     -1355.14740547
  atomic energy  EATOM  =     13873.74036856
  Solvation  Ediel_sol  =         0.00000000
  ---------------------------------------------------
  free energy    TOTEN  =       -88.60277619 eV

  energy without entropy =      -88.60277619  energy(sigma->0) =      -88.60277619
  exchange ACFDT corr.  =         0.00000000  see jH, gK, PRB 81, 115126


--------------------------------------------------------------------------------------------------------




--------------------------------------- Iteration      1(  18)  ---------------------------------------


    POTLOK:  cpu time      0.0770: real time      0.0912
    SETDIJ:  cpu time      0.4200: real time      0.4210
     EDDAV:  cpu time    127.5365: real time    127.8386
 BZINTS: Fermi energy:    1.171621;  160.000000 electrons
         Band energy:-0.135510E+04;  BLOECHL correction:    0.000000
       DOS:  cpu time      0.0037: real time      0.0039
    CHARGE:  cpu time      0.0583: real time      0.0584
    MIXING:  cpu time      0.0003: real time      0.0003
    --------------------------------------------
      LOOP:  cpu time    128.0958: real time    128.4134

 eigenvalue-minimisations  :  1032
 total energy-change (2. order) :-0.2187378E-04  (-0.1186720E-05)
 number of electron     160.0000016 magnetization 
 augmentation part       12.8780614 magnetization 

 Free energy of the ion-electron system (eV)
  ---------------------------------------------------
  alpha Z        PSCENC =       482.94513547
  Ewald energy   TEWEN  =     -7601.08312602
  -Hartree energ DENC   =     -4829.18989650
  -exchange      EXHF   =       324.74419760
  -V(xc)+E(xc)   XCENC  =       154.70606213
  PAW double counting   =     14545.01061076   -15684.37728096
  entropy T*S    EENTRO =         0.00000000
  eigenvalues    EBANDS =     -1355.09886910
  atomic energy  EATOM  =     13873.74036856
  Solvation  Ediel_sol  =         0.00000000
  ---------------------------------------------------
  free energy    TOTEN  =       -88.60279807 eV

  energy without entropy =      -88.60279807  energy(sigma->0) =      -88.60279807
  exchange ACFDT corr.  =         0.00000000  see jH, gK, PRB 81, 115126


--------------------------------------------------------------------------------------------------------




--------------------------------------- Iteration      1(  19)  ---------------------------------------


    POTLOK:  cpu time      0.1040: real time      0.1161
    SETDIJ:  cpu time      0.4207: real time      0.4217
     EDDAV:  cpu time    127.7848: real time    128.0906
 BZINTS: Fermi energy:    1.170212;  160.000000 electrons
         Band energy:-0.135507E+04;  BLOECHL correction:    0.000000
       DOS:  cpu time      0.0038: real time      0.0039
    CHARGE:  cpu time      0.0664: real time      0.0666
    MIXING:  cpu time      0.0004: real time      0.0004
    --------------------------------------------
      LOOP:  cpu time    128.3801: real time    128.6994

 eigenvalue-minimisations  :   996
 total energy-change (2. order) :-0.1176278E-04  (-0.7085167E-06)
 number of electron     160.0000016 magnetization 
 augmentation part       12.8780552 magnetization 

 Free energy of the ion-electron system (eV)
  ---------------------------------------------------
  alpha Z        PSCENC =       482.94513547
  Ewald energy   TEWEN  =     -7601.08312602
  -Hartree energ DENC   =     -4829.21661867
  -exchange      EXHF   =       324.74370173
  -V(xc)+E(xc)   XCENC  =       154.70990116
  PAW double counting   =     14546.85382397   -15686.23013324
  entropy T*S    EENTRO =         0.00000000
  eigenvalues    EBANDS =     -1355.06586279
  atomic energy  EATOM  =     13873.74036856
  Solvation  Ediel_sol  =         0.00000000
  ---------------------------------------------------
  free energy    TOTEN  =       -88.60280983 eV

  energy without entropy =      -88.60280983  energy(sigma->0) =      -88.60280983
  exchange ACFDT corr.  =         0.00000000  see jH, gK, PRB 81, 115126


--------------------------------------------------------------------------------------------------------




--------------------------------------- Iteration      1(  20)  ---------------------------------------


    POTLOK:  cpu time      0.1209: real time      0.1220
    SETDIJ:  cpu time      0.4413: real time      0.4423
     EDDAV:  cpu time    128.1761: real time    128.4819
 BZINTS: Fermi energy:    1.168862;  160.000000 electrons
         Band energy:-0.135504E+04;  BLOECHL correction:    0.000000
       DOS:  cpu time      0.0037: real time      0.0038
    --------------------------------------------
      LOOP:  cpu time    128.7419: real time    129.0501

 eigenvalue-minimisations  :   912
 total energy-change (2. order) :-0.6328324E-05  (-0.4531029E-06)
 number of electron     160.0000016 magnetization 
 augmentation part       12.8780552 magnetization 

 Free energy of the ion-electron system (eV)
  ---------------------------------------------------
  alpha Z        PSCENC =       482.94513547
  Ewald energy   TEWEN  =     -7601.08312602
  -Hartree energ DENC   =     -4829.23561942
  -exchange      EXHF   =       324.74338087
  -V(xc)+E(xc)   XCENC  =       154.71243390
  PAW double counting   =     14547.91450512   -15687.29673909
  entropy T*S    EENTRO =         0.00000000
  eigenvalues    EBANDS =     -1355.04315554
  atomic energy  EATOM  =     13873.74036856
  Solvation  Ediel_sol  =         0.00000000
  ---------------------------------------------------
  free energy    TOTEN  =       -88.60281616 eV

  energy without entropy =      -88.60281616  energy(sigma->0) =      -88.60281616
  exchange ACFDT corr.  =         0.00000000  see jH, gK, PRB 81, 115126


--------------------------------------------------------------------------------------------------------




 average (electrostatic) potential at core
  the test charge radii are     1.1312  1.0314  1.0808
  (the norm of the test charge is              1.0000)
       1 -45.7467       2 -45.7467       3 -45.7467       4 -45.7467       5 -61.2190
       6 -61.2189       7 -61.2190       8 -61.2189       9 -52.5060      10 -52.5059
      11 -52.5060      12 -52.5059      13 -51.7559      14 -51.7559      15 -51.7559
      16 -51.7559      17 -52.4900      18 -52.4900      19 -52.4900      20 -52.4900
 
 
 
 E-fermi :   1.1689     XC(G=0):  -6.9852     alpha+bet : -8.0719

 Fermi energy:         1.1688623333

 k-point     1 :       0.0000    0.0000    0.0000
  band No.  band energies     occupation 
      1     -21.4027      2.00000
      2     -21.3987      2.00000
      3     -21.3834      2.00000
      4     -21.3806      2.00000
      5     -15.7766      2.00000
      6     -15.7755      2.00000
      7     -15.7752      2.00000
      8     -15.7709      2.00000
      9     -15.7473      2.00000
     10     -15.7465      2.00000
     11     -15.7024      2.00000
     12     -15.7022      2.00000
     13     -15.6547      2.00000
     14     -15.6546      2.00000
     15     -15.6464      2.00000
     16     -15.6463      2.00000
     17     -15.6117      2.00000
     18     -15.6117      2.00000
     19     -15.5827      2.00000
     20     -15.5825      2.00000
     21     -15.5746      2.00000
     22     -15.5746      2.00000
     23     -15.5696      2.00000
     24     -15.5695      2.00000
     25     -14.1329      2.00000
     26     -13.9897      2.00000
     27     -13.6023      2.00000
[...]
   32.158527    0.797472    0.794722    0.790299    0.000000   -0.000000   -0.011720
   32.184694    0.797850    0.795104    0.790690    0.000000   -0.000000   -0.011700
   32.210860    0.798226    0.795486    0.791079    0.000000   -0.000000   -0.011680
   32.237026    0.798601    0.795866    0.791468    0.000000   -0.000000   -0.011660
   32.263193    0.798975    0.796245    0.791855    0.000000   -0.000000   -0.011640
   32.289359    0.799348    0.796623    0.792241    0.000000   -0.000000   -0.011620
   32.315526    0.799719    0.797000    0.792627    0.000000   -0.000000   -0.011600
   32.341692    0.800090    0.797375    0.793010    0.000000   -0.000000   -0.011581
   32.367859    0.800460    0.797750    0.793393    0.000000   -0.000000   -0.011561
   32.394025    0.800828    0.798123    0.793775    0.000000   -0.000000   -0.011541
   32.420191    0.801195    0.798496    0.794155    0.000000   -0.000000   -0.011522
   32.446358    0.801562    0.798867    0.794535    0.000000   -0.000000   -0.011502
   32.472524    0.801927    0.799237    0.794913    0.000000   -0.000000   -0.011482
   32.498691    0.802291    0.799606    0.795290    0.000000   -0.000000   -0.011463
   32.524857    0.802654    0.799974    0.795666    0.000000   -0.000000   -0.011444
   32.551024    0.803016    0.800341    0.796041    0.000000   -0.000000   -0.011424
   32.577190    0.803376    0.800707    0.796415    0.000000   -0.000000   -0.011405
   32.603356    0.803736    0.801071    0.796788    0.000000   -0.000000   -0.011386
   32.629523    0.804095    0.801435    0.797159    0.000000   -0.000000   -0.011366
   32.655689    0.804453    0.801797    0.797530    0.000000   -0.000000   -0.011347
   32.681856    0.804809    0.802159    0.797899    0.000000   -0.000000   -0.011328
   32.708022    0.805165    0.802519    0.798267    0.000000   -0.000000   -0.011309
   32.734188    0.805519    0.802879    0.798635    0.000000   -0.000000   -0.011290
   32.760355    0.805873    0.803237    0.799001    0.000000   -0.000000   -0.011271
   32.786521    0.806225    0.803594    0.799366    0.000000   -0.000000   -0.011252
   32.812688    0.806577    0.803951    0.799730    0.000000   -0.000000   -0.011233
   32.838854    0.806927    0.804306    0.800093    0.000000   -0.000000   -0.011215
   32.865021    0.807277    0.804660    0.800455    0.000000   -0.000000   -0.011196
   32.891187    0.807625    0.805013    0.800816    0.000000   -0.000000   -0.011177
   32.917353    0.807973    0.805365    0.801176    0.000000   -0.000000   -0.011158
   32.943520    0.808319    0.805716    0.801534    0.000000   -0.000000   -0.011140
   32.969686    0.808664    0.806066    0.801892    0.000000   -0.000000   -0.011121
   32.995853    0.809009    0.806415    0.802249    0.000000   -0.000000   -0.011103
   33.022019    0.809352    0.806764    0.802604    0.000000   -0.000000   -0.011084
   33.048185    0.809695    0.807111    0.802959    0.000000   -0.000000   -0.011066
   33.074352    0.810036    0.807457    0.803313    0.000000   -0.000000   -0.011047
   33.100518    0.810376    0.807802    0.803665    0.000000   -0.000000   -0.011029
   33.126685    0.810716    0.808146    0.804017    0.000000   -0.000000   -0.011011
   33.152851    0.811054    0.808489    0.804368    0.000000   -0.000000   -0.010993
   33.179018    0.811392    0.808831    0.804717    0.000000   -0.000000   -0.010974
   33.205184    0.811729    0.809172    0.805066    0.000000   -0.000000   -0.010956
   33.231350    0.812064    0.809512    0.805413    0.000000   -0.000000   -0.010938
   33.257517    0.812399    0.809852    0.805760    0.000000   -0.000000   -0.010920
   33.283683    0.812733    0.810190    0.806106    0.000000   -0.000000   -0.010902
   33.309850    0.813065    0.810527    0.806450    0.000000   -0.000000   -0.010884
   33.336016    0.813397    0.810863    0.806794    0.000000   -0.000000   -0.010866
   33.362182    0.813728    0.811199    0.807137    0.000000   -0.000000   -0.010849
   33.388349    0.814058    0.811533    0.807478    0.000000   -0.000000   -0.010831
   33.414515    0.814387    0.811867    0.807819    0.000000   -0.000000   -0.010813
   33.440682    0.814715    0.812199    0.808159    0.000000   -0.000000   -0.010795
   33.466848    0.815042    0.812531    0.808498    0.000000   -0.000000   -0.010778
   33.493015    0.815369    0.812862    0.808836    0.000000   -0.000000   -0.010760
   33.519181    0.815694    0.813191    0.809173    0.000000   -0.000000   -0.010742
   33.545347    0.816018    0.813520    0.809509    0.000000   -0.000000   -0.010725
   33.571514    0.816342    0.813848    0.809844    0.000000   -0.000000   -0.010707
   33.597680    0.816665    0.814175    0.810178    0.000000   -0.000000   -0.010690
   33.623847    0.816986    0.814501    0.810511    0.000000   -0.000000   -0.010672
   33.650013    0.817307    0.814826    0.810843    0.000000   -0.000000   -0.010655
   33.676179    0.817627    0.815150    0.811174    0.000000   -0.000000   -0.010638
   33.702346    0.817946    0.815474    0.811505    0.000000   -0.000000   -0.010620
   33.728512    0.818264    0.815796    0.811834    0.000000   -0.000000   -0.010603
   33.754679    0.818581    0.816118    0.812163    0.000000   -0.000000   -0.010586
   33.780845    0.818898    0.816438    0.812490    0.000000   -0.000000   -0.010569
   33.807012    0.819213    0.816758    0.812817    0.000000   -0.000000   -0.010552
   33.833178    0.819528    0.817077    0.813143    0.000000   -0.000000   -0.010535
   33.859344    0.819842    0.817395    0.813468    0.000000   -0.000000   -0.010518
   33.885511    0.820155    0.817712    0.813792    0.000000   -0.000000   -0.010501
   33.911677    0.820467    0.818028    0.814115    0.000000   -0.000000   -0.010484
   33.937844    0.820778    0.818344    0.814437    0.000000   -0.000000   -0.010467
   33.964010    0.821088    0.818658    0.814759    0.000000   -0.000000   -0.010450
   33.990176    0.821398    0.818972    0.815079    0.000000   -0.000000   -0.010433
   34.016343    0.821706    0.819285    0.815399    0.000000   -0.000000   -0.010417
   34.042509    0.822014    0.819597    0.815717    0.000000   -0.000000   -0.010400
   34.068676    0.822321    0.819908    0.816035    0.000000   -0.000000   -0.010383
   34.094842    0.822627    0.820218    0.816352    0.000000   -0.000000   -0.010366
   34.121009    0.822932    0.820527    0.816668    0.000000   -0.000000   -0.010350
   34.147175    0.823237    0.820836    0.816984    0.000000   -0.000000   -0.010333
   34.173341    0.823540    0.821144    0.817298    0.000000   -0.000000   -0.010317
   34.199508    0.823843    0.821450    0.817611    0.000000   -0.000000   -0.010300
   34.225674    0.824145    0.821756    0.817924    0.000000   -0.000000   -0.010284
   34.251841    0.824446    0.822062    0.818236    0.000000   -0.000000   -0.010268
   34.278007    0.824746    0.822366    0.818547    0.000000   -0.000000   -0.010251
   34.304173    0.825046    0.822669    0.818857    0.000000   -0.000000   -0.010235
   34.330340    0.825345    0.822972    0.819166    0.000000   -0.000000   -0.010219
   34.356506    0.825642    0.823274    0.819475    0.000000   -0.000000   -0.010202
   34.382673    0.825939    0.823575    0.819782    0.000000   -0.000000   -0.010186
   34.408839    0.826236    0.823875    0.820089    0.000000   -0.000000   -0.010170
   34.435006    0.826531    0.824175    0.820395    0.000000   -0.000000   -0.010154
   34.461172    0.826826    0.824473    0.820700    0.000000   -0.000000   -0.010138
   34.487338    0.827120    0.824771    0.821004    0.000000   -0.000000   -0.010122
   34.513505    0.827413    0.825068    0.821308    0.000000   -0.000000   -0.010106
   34.539671    0.827705    0.825365    0.821611    0.000000   -0.000000   -0.010090
   34.565838    0.827997    0.825660    0.821912    0.000000   -0.000000   -0.010074
   34.592004    0.828287    0.825955    0.822214    0.000000   -0.000000   -0.010058
   34.618170    0.828577    0.826249    0.822514    0.000000   -0.000000   -0.010042
   34.644337    0.828867    0.826542    0.822813    0.000000   -0.000000   -0.010026
   34.670503    0.829155    0.826834    0.823112    0.000000   -0.000000   -0.010011
   34.696670    0.829443    0.827126    0.823410    0.000000   -0.000000   -0.009995
   34.722836    0.829730    0.827416    0.823707    0.000000   -0.000000   -0.009979
   34.749003    0.830016    0.827706    0.824003    0.000000   -0.000000   -0.009964
   34.775169    0.830301    0.827996    0.824299    0.000000   -0.000000   -0.009948
   34.801335    0.830586    0.828284    0.824593    0.000000   -0.000000   -0.009932
   34.827502    0.830870    0.828572    0.824887    0.000000   -0.000000   -0.009917
   34.853668    0.831153    0.828859    0.825180    0.000000   -0.000000   -0.009901
   34.879835    0.831435    0.829145    0.825473    0.000000   -0.000000   -0.009886
   34.906001    0.831717    0.829430    0.825764    0.000000   -0.000000   -0.009871
   34.932168    0.831998    0.829715    0.826055    0.000000   -0.000000   -0.009855
   34.958334    0.832278    0.829999    0.826345    0.000000   -0.000000   -0.009840
   34.984500    0.832557    0.830282    0.826634    0.000000   -0.000000   -0.009824
   35.010667    0.832836    0.830564    0.826923    0.000000   -0.000000   -0.009809
   35.036833    0.833114    0.830846    0.827211    0.000000   -0.000000   -0.009794
   35.063000    0.833391    0.831127    0.827498    0.000000   -0.000000   -0.009779
   35.089166    0.833667    0.831407    0.827784    0.000000   -0.000000   -0.009764
   35.115332    0.833943    0.831687    0.828070    0.000000   -0.000000   -0.009748
   35.141499    0.834218    0.831965    0.828354    0.000000   -0.000000   -0.009733
   35.167665    0.834493    0.832243    0.828638    0.000000   -0.000000   -0.009718
   35.193832    0.834766    0.832521    0.828922    0.000000   -0.000000   -0.009703
   35.219998    0.835039    0.832797    0.829204    0.000000   -0.000000   -0.009688
   35.246165    0.835311    0.833073    0.829486    0.000000   -0.000000   -0.009673
   35.272331    0.835583    0.833348    0.829767    0.000000   -0.000000   -0.009658
   35.298497    0.835854    0.833623    0.830047    0.000000   -0.000000   -0.009644
   35.324664    0.836124    0.833896    0.830327    0.000000   -0.000000   -0.009629
   35.350830    0.836393    0.834169    0.830606    0.000000   -0.000000   -0.009614
   35.376997    0.836662    0.834442    0.830884    0.000000   -0.000000   -0.009599
   35.403163    0.836930    0.834713    0.831162    0.000000   -0.000000   -0.009584
   35.429329    0.837197    0.834984    0.831438    0.000000   -0.000000   -0.009570
   35.455496    0.837464    0.835254    0.831714    0.000000   -0.000000   -0.009555
   35.481662    0.837730    0.835524    0.831990    0.000000   -0.000000   -0.009540
   35.507829    0.837995    0.835793    0.832264    0.000000   -0.000000   -0.009526
   35.533995    0.838259    0.836061    0.832538    0.000000   -0.000000   -0.009511
   35.560162    0.838523    0.836328    0.832811    0.000000   -0.000000   -0.009497
   35.586328    0.838786    0.836595    0.833084    0.000000   -0.000000   -0.009482
   35.612494    0.839049    0.836861    0.833356    0.000000   -0.000000   -0.009468
   35.638661    0.839311    0.837126    0.833627    0.000000   -0.000000   -0.009453
   35.664827    0.839572    0.837391    0.833897    0.000000   -0.000000   -0.009439
   35.690994    0.839832    0.837655    0.834167    0.000000   -0.000000   -0.009425
   35.717160    0.840092    0.837918    0.834436    0.000000   -0.000000   -0.009410
   35.743326    0.840352    0.838181    0.834704    0.000000   -0.000000   -0.009396
   35.769493    0.840610    0.838443    0.834972    0.000000   -0.000000   -0.009382
   35.795659    0.840868    0.838704    0.835239    0.000000   -0.000000   -0.009368
   35.821826    0.841125    0.838965    0.835505    0.000000   -0.000000   -0.009353
   35.847992    0.841382    0.839225    0.835771    0.000000   -0.000000   -0.009339
   35.874159    0.841638    0.839484    0.836036    0.000000   -0.000000   -0.009325
   35.900325    0.841893    0.839743    0.836300    0.000000   -0.000000   -0.009311
   35.926491    0.842148    0.840001    0.836564    0.000000   -0.000000   -0.009297
   35.952658    0.842402    0.840258    0.836827    0.000000   -0.000000   -0.009283
   35.978824    0.842655    0.840515    0.837089    0.000000   -0.000000   -0.009269
   36.004991    0.842908    0.840771    0.837350    0.000000   -0.000000   -0.009255
   36.031157    0.843160    0.841027    0.837611    0.000000   -0.000000   -0.009241
   36.057323    0.843411    0.841281    0.837872    0.000000   -0.000000   -0.009227
   36.083490    0.843662    0.841536    0.838131    0.000000   -0.000000   -0.009213
   36.109656    0.843912    0.841789    0.838390    0.000000   -0.000000   -0.009199
   36.135823    0.844162    0.842042    0.838649    0.000000   -0.000000   -0.009186
   36.161989    0.844410    0.842294    0.838906    0.000000   -0.000000   -0.009172
   36.188156    0.844659    0.842546    0.839163    0.000000   -0.000000   -0.009158
   36.214322    0.844906    0.842797    0.839420    0.000000   -0.000000   -0.009144
   36.240488    0.845154    0.843047    0.839676    0.000000   -0.000000   -0.009131
   36.266655    0.845400    0.843297    0.839931    0.000000   -0.000000   -0.009117
   36.292821    0.845646    0.843546    0.840185    0.000000   -0.000000   -0.009103
   36.318988    0.845891    0.843795    0.840439    0.000000   -0.000000   -0.009090
   36.345154    0.846136    0.844043    0.840692    0.000000   -0.000000   -0.009076
   36.371320    0.846380    0.844290    0.840945    0.000000   -0.000000   -0.009063
   36.397487    0.846623    0.844536    0.841197    0.000000   -0.000000   -0.009049
   36.423653    0.846866    0.844782    0.841448    0.000000   -0.000000   -0.009036
   36.449820    0.847108    0.845028    0.841699    0.000000   -0.000000   -0.009022
   36.475986    0.847350    0.845273    0.841949    0.000000   -0.000000   -0.009009
   36.502153    0.847591    0.845517    0.842198    0.000000   -0.000000   -0.008996
   36.528319    0.847831    0.845761    0.842447    0.000000   -0.000000   -0.008982
   36.554485    0.848071    0.846004    0.842696    0.000000   -0.000000   -0.008969
   36.580652    0.848310    0.846246    0.842943    0.000000   -0.000000   -0.008956
   36.606818    0.848549    0.846488    0.843190    0.000000   -0.000000   -0.008943
   36.632985    0.848787    0.846729    0.843437    0.000000   -0.000000   -0.008929
   36.659151    0.849024    0.846970    0.843682    0.000000   -0.000000   -0.008916
   36.685317    0.849261    0.847210    0.843928    0.000000   -0.000000   -0.008903
   36.711484    0.849497    0.847449    0.844172    0.000000   -0.000000   -0.008890
   36.737650    0.849733    0.847688    0.844416    0.000000   -0.000000   -0.008877
   36.763817    0.849968    0.847926    0.844660    0.000000   -0.000000   -0.008864
   36.789983    0.850203    0.848164    0.844902    0.000000   -0.000000   -0.008851
   36.816150    0.850436    0.848401    0.845145    0.000000   -0.000000   -0.008838
   36.842316    0.850670    0.848638    0.845386    0.000000   -0.000000   -0.008825
   36.868482    0.850903    0.848874    0.845627    0.000000   -0.000000   -0.008812
   36.894649    0.851135    0.849109    0.845868    0.000000   -0.000000   -0.008799
   36.920815    0.851367    0.849344    0.846108    0.000000   -0.000000   -0.008786
   36.946982    0.851598    0.849578    0.846347    0.000000   -0.000000   -0.008773
   36.973148    0.851828    0.849812    0.846586    0.000000   -0.000000   -0.008760
   36.999315    0.852058    0.850045    0.846824    0.000000   -0.000000   -0.008747
   37.025481    0.852288    0.850277    0.847061    0.000000   -0.000000   -0.008735
   37.051647    0.852517    0.850509    0.847298    0.000000   -0.000000   -0.008722
   37.077814    0.852745    0.850741    0.847535    0.000000   -0.000000   -0.008709
   37.103980    0.852973    0.850971    0.847770    0.000000   -0.000000   -0.008696
   37.130147    0.853200    0.851202    0.848006    0.000000   -0.000000   -0.008684
   37.156313    0.853427    0.851431    0.848240    0.000000   -0.000000   -0.008671
   37.182479    0.853653    0.851661    0.848474    0.000000   -0.000000   -0.008659
   37.208646    0.853879    0.851889    0.848708    0.000000   -0.000000   -0.008646
   37.234812    0.854104    0.852117    0.848941    0.000000   -0.000000   -0.008633
   37.260979    0.854328    0.852345    0.849173    0.000000   -0.000000   -0.008621
   37.287145    0.854552    0.852572    0.849405    0.000000   -0.000000   -0.008608
   37.313312    0.854776    0.852798    0.849637    0.000000   -0.000000   -0.008596
   37.339478    0.854999    0.853024    0.849867    0.000000   -0.000000   -0.008584
   37.365644    0.855221    0.853250    0.850098    0.000000   -0.000000   -0.008571
   37.391811    0.855443    0.853474    0.850327    0.000000   -0.000000   -0.008559
   37.417977    0.855664    0.853699    0.850556    0.000000   -0.000000   -0.008546
   37.444144    0.855885    0.853922    0.850785    0.000000   -0.000000   -0.008534
   37.470310    0.856105    0.854146    0.851013    0.000000   -0.000000   -0.008522
 
 The outermost node in the dielectric function lies at epsilon=  18.6


--------------------------------------------------------------------------------------------------------


    OPTICS:  cpu time      5.7523: real time      5.8587
    4ORBIT:  cpu time      0.0000: real time      0.0000



 total charge

# of ion       s       p       d       tot
------------------------------------------
    1        2.287   4.719   0.026   7.033
    2        2.287   4.719   0.026   7.033
    3        2.287   4.719   0.026   7.033
    4        2.287   4.719   0.026   7.033
    5        0.818   0.752  10.053  11.623
    6        0.818   0.752  10.053  11.623
    7        0.818   0.752  10.053  11.623
    8        0.818   0.752  10.053  11.623
    9        1.486   2.352   0.038   3.876
   10        1.486   2.352   0.038   3.876
   11        1.486   2.352   0.038   3.876
   12        1.486   2.352   0.038   3.876
   13        1.468   2.444   0.022   3.934
   14        1.468   2.444   0.022   3.934
   15        1.468   2.444   0.022   3.934
   16        1.468   2.444   0.022   3.934
   17        1.486   2.340   0.038   3.865
   18        1.486   2.340   0.038   3.865
   19        1.486   2.340   0.038   3.865
   20        1.486   2.340   0.038   3.865
--------------------------------------------------
tot         30.181  50.429  40.713 121.323
 
 BZINTS: Fermi energy:    1.168862;  160.000000 electrons
         Band energy:-0.135504E+04;  BLOECHL correction:    0.000000

 total amount of memory used by VASP MPI-rank0   115642. kBytes
=======================================================================

   base      :      30000. kBytes
   nonl-proj :       3288. kBytes
   fftplans  :       3292. kBytes
   grid      :       4566. kBytes
   one-center:         15. kBytes
   HF        :         64. kBytes
   nonlr-proj:      14464. kBytes
   wavefun   :       2150. kBytes
   fock_wrk  :      57803. kBytes
 
  
  
 General timing and accounting informations for this job:
 ========================================================
  
                  Total CPU time used (sec):     3147.764
                            User time (sec):     2785.852
                          System time (sec):      361.913
                         Elapsed time (sec):     3165.696
  
                   Maximum memory used (kb):      614600.
                   Average memory used (kb):          N/A
  
                          Minor page faults:       945302
                          Major page faults:            0
                 Voluntary context switches:        26235
