 vasp.6.4.2 20Jul23 (build Mar 15 2024 16:31:38) complex                        
  
 executed on             LinuxIFC date 2025.03.27  12:12:25
 running  120 mpi-ranks, on    3 nodes
 distrk:  each k-point on  120 cores,    1 groups
 distr:  one band on NCORE=  10 cores,   12 groups


--------------------------------------------------------------------------------------------------------


 INCAR:
   ALGO = Normal
   EDIFF = 1e-05
   ENAUG = 1360
   ENCUT = 680
   GGA = Pe
   HFSCREEN = 0.2
   ISMEAR = 0
   ISPIN = 2
   LAECHG = True
   LASPH = True
   LCHARG = True
   LDAU = False
   LELF = False
   LHFCALC = True
   LMAXMIX = 4
   LMIXTAU = True
   LORBIT = 11
   LREAL = False
   LVTOT = True
   LWAVE = True
   MAGMOM = 20*0.6
   NCORE = 10
   NELM = 200
   NSW = 0
   PREC = Accurate
   PRECFOCK = Accurate
   SIGMA = 0.01

 POTCAR:    PAW_PBE Sb 06Sep2000                  
 POTCAR:    PAW_PBE Se 06Sep2000                  
 WARNING: For LVTOT=.TRUE., VASP.5.x writes the TOTAL local potential to the
     file LOCPOT. If you want only the Hartree contributions, use LVHAR=.TRUE.
     instead. 

 POTCAR:    PAW_PBE Sb 06Sep2000                  
   VRHFIN =Sb: s2p3                                                                                 
   LEXCH  = PE                                                                                      
   EATOM  =   149.9515 eV,   11.0211 Ry                                                             
                                                                                                    
   TITEL  = PAW_PBE Sb 06Sep2000                                                                    
   LULTRA =        F    use ultrasoft PP ?                                                          
   IUNSCR =        1    unscreen: 0-lin 1-nonlin 2-no                                               
   RPACOR =    2.200    partial core radius                                                         
   POMASS =  121.750; ZVAL   =    5.000    mass and valenz                                          
   RCORE  =    2.300    outmost cutoff radius                                                       
   RWIGS  =    2.980; RWIGS  =    1.577    wigner-seitz radius (au A)                               
   ENMAX  =  172.069; ENMIN  =  129.052 eV                                                          
   ICORE  =        3    local potential                                                             
   LCOR   =        T    correct aug charges                                                         
   LPAW   =        T    paw PP                                                                      
   EAUG   =  380.513                                                                                
   DEXC   =    0.000                                                                                
   RMAX   =    2.346    core radius for proj-oper                                                   
   RAUG   =    1.300    factor for augmentation sphere                                              
   RDEP   =    2.360    radius for radial grids                                                     
   RDEPT  =    2.192    core radius for aug-charge                                                  
                                                                                                    
   Atomic configuration                                                                             
   13 entries                                                                                       
     n  l   j            E        occ.                                                              
     1  0  0.50    -30298.2797   2.0000                                                             
     2  0  0.50     -4610.2252   2.0000                                                             
     2  1  1.50     -4138.3407   6.0000                                                             
     3  0  0.50      -903.8815   2.0000                                                             
     3  1  1.50      -750.1337   6.0000                                                             
     3  2  2.50      -515.7092  10.0000                                                             
     4  0  0.50      -148.8034   2.0000                                                             
     4  1  1.50      -101.7581   6.0000                                                             
     4  2  2.50       -33.5048  10.0000                                                             
     5  0  0.50       -12.8298   2.0000                                                             
     5  1  0.50        -4.8276   3.0000                                                             
     5  2  1.50        -4.0817   0.0000                                                             
     4  3  2.50        -4.0817   0.0000                                                             
   Description                                                                                      
     l       E           TYP  RCUT    TYP  RCUT                                                     
     0    -12.8297861     23  2.300                                                                 
     0     13.6058260     23  2.300                                                                 
     1     -4.8275512     23  2.300                                                                 
     1     -0.7245443     23  2.300                                                                 
     2     -4.0817478     23  2.300                                                                 
     3     -1.3605826     23  2.300                                                                 
  local pseudopotential read in
  partial core-charges read in
  partial kinetic energy density read in
  atomic valenz-charges read in
  non local Contribution for L=           0  read in
    real space projection operators read in
  non local Contribution for L=           0  read in
    real space projection operators read in
  non local Contribution for L=           1  read in
    real space projection operators read in
  non local Contribution for L=           1  read in
    real space projection operators read in
  non local Contribution for L=           2  read in
    real space projection operators read in
    PAW grid and wavefunctions read in
 
   number of l-projection  operators is LMAX  =           5
   number of lm-projection operators is LMMAX =          13
 
 POTCAR:    PAW_PBE Se 06Sep2000                  
   VRHFIN =Se: s2p4                                                                                 
   LEXCH  = PE                                                                                      
   EATOM  =   257.1286 eV,   18.8984 Ry                                                             
                                                                                                    
   TITEL  = PAW_PBE Se 06Sep2000                                                                    
   LULTRA =        F    use ultrasoft PP ?                                                          
   IUNSCR =        1    unscreen: 0-lin 1-nonlin 2-no                                               
   RPACOR =    1.900    partial core radius                                                         
   POMASS =   78.960; ZVAL   =    6.000    mass and valenz                                          
   RCORE  =    2.100    outmost cutoff radius                                                       
   RWIGS  =    2.200; RWIGS  =    1.164    wigner-seitz radius (au A)                               
   ENMAX  =  211.555; ENMIN  =  158.666 eV                                                          
   ICORE  =        3    local potential                                                             
   LCOR   =        T    correct aug charges                                                         
   LPAW   =        T    paw PP                                                                      
   EAUG   =  446.842                                                                                
   DEXC   =    0.000                                                                                
   RMAX   =    2.147    core radius for proj-oper                                                   
   RAUG   =    1.300    factor for augmentation sphere                                              
   RDEP   =    2.177    radius for radial grids                                                     
   RDEPT  =    1.928    core radius for aug-charge                                                  
                                                                                                    
   Atomic configuration                                                                             
   10 entries                                                                                       
     n  l   j            E        occ.                                                              
     1  0  0.50    -12503.4787   2.0000                                                             
     2  0  0.50     -1606.9547   2.0000                                                             
     2  1  1.50     -1413.3140   6.0000                                                             
     3  0  0.50      -213.4885   2.0000                                                             
     3  1  1.50      -152.9538   6.0000                                                             
     3  2  2.50       -53.1221  10.0000                                                             
     4  0  0.50       -17.2865   2.0000                                                             
     4  1  0.50        -6.5110   4.0000                                                             
     4  2  2.50        -6.8029   0.0000                                                             
     4  3  2.50        -6.8029   0.0000                                                             
   Description                                                                                      
     l       E           TYP  RCUT    TYP  RCUT                                                     
     0    -17.2865377     23  2.100                                                                 
     0    -15.3094411     23  2.100                                                                 
     1     -6.5110275     23  2.100                                                                 
     1     -0.0695192     23  2.100                                                                 
     2     -6.8029130     23  2.100                                                                 
     3     -1.3605826      7  2.100                                                                 
  local pseudopotential read in
  partial core-charges read in
  partial kinetic energy density read in
  atomic valenz-charges read in
  non local Contribution for L=           0  read in
    real space projection operators read in
  non local Contribution for L=           0  read in
    real space projection operators read in
  non local Contribution for L=           1  read in
    real space projection operators read in
  non local Contribution for L=           1  read in
    real space projection operators read in
  non local Contribution for L=           2  read in
    real space projection operators read in
    PAW grid and wavefunctions read in
 
   number of l-projection  operators is LMAX  =           5
   number of lm-projection operators is LMMAX =          13
 
 -----------------------------------------------------------------------------
|                                                                             |
|               ----> ADVICE to this user running VASP <----                  |
|                                                                             |
|     You have a (more or less) 'large supercell' and for larger cells it     |
|     might be more efficient to use real-space projection operators.         |
|     Therefore, try LREAL= Auto in the INCAR file.                           |
|     Mind: For very accurate calculation, you might also keep the            |
|     reciprocal projection scheme (i.e. LREAL=.FALSE.).                      |
|                                                                             |
 -----------------------------------------------------------------------------

  PAW_PBE Sb 06Sep2000                  :
 energy of atom  1       EATOM= -149.9515
 kinetic energy error for atom=    0.0002 (will be added to EATOM!!)
  PAW_PBE Se 06Sep2000                  :
 energy of atom  2       EATOM= -257.1286
 kinetic energy error for atom=    0.0004 (will be added to EATOM!!)
 
 
 POSCAR: Sb8 Se12
  positions in direct lattice
  No initial velocities read in
 exchange correlation table for  LEXCH =        8
   RHO(1)=    0.500       N(1)  =     2000
   RHO(2)=  100.500       N(2)  =     4000
 


--------------------------------------------------------------------------------------------------------


 ion  position               nearest neighbor table
   1  0.750  0.038  0.140-   9 2.59  13 2.81  13 2.81  10 2.99  10 2.99
   2  0.250  0.962  0.860-  10 2.59  14 2.81  14 2.81   9 2.99   9 2.99
   3  0.250  0.538  0.360-  11 2.59  15 2.81  15 2.81  12 2.99  12 2.99
   4  0.750  0.462  0.640-  12 2.59  16 2.81  16 2.81  11 2.99  11 2.99
   5  0.250  0.330  0.034-  13 2.66  20 2.68  20 2.68   9 3.27   9 3.27
   6  0.750  0.670  0.966-  14 2.66  19 2.68  19 2.68  10 3.27  10 3.27
   7  0.750  0.830  0.466-  15 2.66  18 2.68  18 2.68  11 3.27  11 3.27
   8  0.250  0.170  0.534-  16 2.66  17 2.68  17 2.68  12 3.27  12 3.27
   9  0.750  0.128  0.948-   1 2.59   2 2.99   2 2.99   5 3.27   5 3.27
  10  0.250  0.872  0.052-   2 2.59   1 2.99   1 2.99   6 3.27   6 3.27
  11  0.250  0.628  0.552-   3 2.59   4 2.99   4 2.99   7 3.27   7 3.27
  12  0.750  0.372  0.448-   4 2.59   3 2.99   3 2.99   8 3.27   8 3.27
  13  0.250  0.192  0.205-   5 2.66   1 2.81   1 2.81
  14  0.750  0.808  0.795-   6 2.66   2 2.81   2 2.81
  15  0.750  0.692  0.295-   7 2.66   3 2.81   3 2.81
  16  0.250  0.308  0.705-   8 2.66   4 2.81   4 2.81
  17  0.750  0.054  0.627-   8 2.68   8 2.68
  18  0.250  0.946  0.373-   7 2.68   7 2.68
  19  0.250  0.554  0.873-   6 2.68   6 2.68
  20  0.750  0.446  0.127-   5 2.68   5 2.68
 
  LATTYP: Found a simple orthorhombic cell.
 ALAT       =     4.0015568700
 B/A-ratio  =     2.9272680835
 C/A-ratio  =     3.0893158842
  
  Lattice vectors:
  
 A1 = (   4.0015568700,   0.0000000000,   0.0000000000)
 A2 = (  -0.0000000000,  11.7136297100,   0.0000000000)
 A3 = (   0.0000000000,   0.0000000000,  12.3620732000)


Analysis of symmetry for initial positions (statically):
=====================================================================
 Subroutine PRICEL returns:
 Original cell was already a primitive cell.
 

 Routine SETGRP: Setting up the symmetry group for a 
 simple orthorhombic supercell.


 Subroutine GETGRP returns: Found  8 space group operations
 (whereof  2 operations were pure point group operations)
 out of a pool of  8 trial point group operations.


The static configuration has the point symmetry S_2 .
 The point group associated with its full space group is D_2h.


Analysis of symmetry for dynamics (positions and initial velocities):
=====================================================================
 Subroutine PRICEL returns:
 Original cell was already a primitive cell.
 

 Routine SETGRP: Setting up the symmetry group for a 
 simple orthorhombic supercell.


 Subroutine GETGRP returns: Found  8 space group operations
 (whereof  2 operations were pure point group operations)
 out of a pool of  8 trial point group operations.


The dynamic configuration has the point symmetry S_2 .
 The point group associated with its full space group is D_2h.


Analysis of structural, dynamic, and magnetic symmetry:
=====================================================================
 Subroutine PRICEL returns:
 Original cell was already a primitive cell.
 

 Routine SETGRP: Setting up the symmetry group for a 
 simple orthorhombic supercell.


 Subroutine GETGRP returns: Found  8 space group operations
 (whereof  2 operations were pure point group operations)
 out of a pool of  8 trial point group operations.


The overall configuration has the point symmetry S_2 .
 The point group associated with its full space group is D_2h.


 Subroutine INISYM returns: Found  8 space group operations
 (whereof  2 operations are pure point group operations),
 and found     1 'primitive' translations


----------------------------------------------------------------------------------------

                                     Primitive cell                                     

  volume of cell :     579.4444

  direct lattice vectors                    reciprocal lattice vectors
     4.001556870  0.000000000  0.000000000     0.249902733  0.000000000  0.000000000
    -0.000000000 11.713629710  0.000000000     0.000000000  0.085370634  0.000000000
     0.000000000  0.000000000 12.362073200    -0.000000000 -0.000000000  0.080892580

  length of vectors
     4.001556870 11.713629710 12.362073200     0.249902733  0.085370634  0.080892580

  position of ions in fractional coordinates (direct lattice)
     0.750000000  0.038094600  0.140322370
     0.250000000  0.961905400  0.859677630
     0.250000000  0.538094600  0.359677630
     0.750000000  0.461905400  0.640322370
     0.250000000  0.329591380  0.033812840
     0.750000000  0.670408620  0.966187160
     0.750000000  0.829591380  0.466187160
     0.250000000  0.170408620  0.533812840
     0.750000000  0.127525360  0.948345200
     0.250000000  0.872474640  0.051654800
     0.250000000  0.627525360  0.551654800
     0.750000000  0.372474640  0.448345200
     0.250000000  0.192100670  0.205331320
     0.750000000  0.807899330  0.794668680
     0.750000000  0.692100670  0.294668680
     0.250000000  0.307899330  0.705331320
     0.750000000  0.054098690  0.627349150
     0.250000000  0.945901310  0.372650850
     0.250000000  0.554098690  0.872650850
     0.750000000  0.445901310  0.127349150

  ion indices of the primitive-cell ions
   primitive index   ion index
                 1           1
                 2           2
                 3           3
                 4           4
                 5           5
                 6           6
                 7           7
                 8           8
                 9           9
                10          10
                11          11
                12          12
                13          13
                14          14
                15          15
                16          16
                17          17
                18          18
                19          19
                20          20

----------------------------------------------------------------------------------------

 
 
 KPOINTS: k-points for static calculation at speci

Read explicit list of k-points.

 Found      3 k-points:

 Following reciprocal coordinates:
            Coordinates               Weight
  0.000000  0.000000  0.000000      0.333333
  0.000000  0.500000  0.000000      0.333333
  0.000000  0.000000  0.500000      0.333333

 Following cartesian coordinates:
            Coordinates               Weight
  0.000000  0.000000  0.000000      0.333333
  0.000000  0.042685  0.000000      0.333333
 -0.000000 -0.000000  0.040446      0.333333
 
 
 Subroutine IBZKPT_HF returns following result:
 ==============================================
 
 Found      3 k-points in 1st BZ
 the following      3 k-points will be used (e.g. in the exchange kernel)
 Following reciprocal coordinates:   # in IRBZ
  0.000000  0.000000  0.000000    0.33333333   1 t-inv F
  0.000000  0.500000  0.000000    0.33333333   2 t-inv F
  0.000000  0.000000  0.500000    0.33333333   3 t-inv F


--------------------------------------------------------------------------------------------------------




 Dimension of arrays:
   k-points           NKPTS =      3   k-points in BZ     NKDIM =      3   number of bands    NBANDS=     84
   number of dos      NEDOS =    301   number of ions     NIONS =     20
   non local maximal  LDIM  =      5   non local SUM 2l+1 LMDIM =     13
   total plane-waves  NPLWV = 388800
   max r-space proj   IRMAX =      1   max aug-charges    IRDMAX=  37433
   dimension x,y,z NGX =    36 NGY =  100 NGZ =  108
   dimension x,y,z NGXF=    72 NGYF=  200 NGZF=  216
   support grid    NGXF=    72 NGYF=  200 NGZF=  216
   ions per type =               8  12
   NGX,Y,Z   is equivalent  to a cutoff of  14.96, 14.19, 14.52 a.u.
   NGXF,Y,Z  is equivalent  to a cutoff of  29.91, 28.39, 29.05 a.u.

 SYSTEM =  unknown system                          
 POSCAR =  Sb8 Se12                                

 Startparameter for this run:
   NWRITE =      2    write-flag & timer
   PREC   = accura    normal or accurate (medium, high low for compatibility)
   ISTART =      0    job   : 0-new  1-cont  2-samecut
   ICHARG =      2    charge: 1-file 2-atom 10-const
   ISPIN  =      2    spin polarized calculation?
   LNONCOLLINEAR =      F non collinear calculations
   LSORBIT =      F    spin-orbit coupling
   INIWAV =      1    electr: 0-lowe 1-rand  2-diag
   LASPH  =      T    aspherical Exc in radial PAW
 Electronic Relaxation 1
   ENCUT  =  680.0 eV  49.98 Ry    7.07 a.u.   8.51 24.91 26.28*2*pi/ulx,y,z
   ENINI  =  680.0     initial cutoff
   ENAUG  = 1360.0 eV  augmentation charge cutoff
   NELM   =    200;   NELMIN=  2; NELMDL=  0     # of ELM steps 
   EDIFF  = 0.1E-04   stopping-criterion for ELM
   LREAL  =      F    real-space projection
   NLSPLINE    = F    spline interpolate recip. space projectors
   LCOMPAT=      F    compatible to vasp.4.4
   GGA_COMPAT  = T    GGA compatible to vasp.4.4-vasp.4.6
   LMAXPAW     = -100 max onsite density
   LMAXMIX     =    4 max onsite mixed and CHGCAR
   VOSKOWN=      0    Vosko Wilk Nusair interpolation
   ROPT   =    0.00000   0.00000
 Ionic relaxation
   EDIFFG = 0.1E-03   stopping-criterion for IOM
   NSW    =      0    number of steps for IOM
   NBLOCK =      1;   KBLOCK =      1    inner block; outer block 
   IBRION =     -1    ionic relax: 0-MD 1-quasi-New 2-CG
   NFREE  =      0    steps in history (QN), initial steepest desc. (CG)
   ISIF   =      0    stress and relaxation
   IWAVPR =     10    prediction:  0-non 1-charg 2-wave 3-comb
   ISYM   =      3    0-nonsym 1-usesym 2-fastsym
   LCORR  =      T    Harris-Foulkes like correction to forces

   POTIM  = 0.5000    time-step for ionic-motion
   TEIN   =    0.0    initial temperature
   TEBEG  =    0.0;   TEEND  =   0.0 temperature during run
   SMASS  =  -3.00    Nose mass-parameter (am)
   estimated Nose-frequenzy (Omega)   =  0.10E-29 period in steps = 0.13E+47 mass=  -0.366E-27a.u.
   SCALEE = 1.0000    scale energy and forces
   NPACO  =    256;   APACO  = 10.0  distance and # of slots for P.C.
   PSTRESS=    0.0 pullay stress

  Mass of Ions in am
   POMASS = 121.75 78.96
  Ionic Valenz
   ZVAL   =   5.00  6.00
  Atomic Wigner-Seitz radii
   RWIGS  =  -1.00 -1.00
  virtual crystal weights 
   VCA    =   1.00  1.00
   NELECT =     112.0000    total number of electrons
   NUPDOWN=      -1.0000    fix difference up-down

 DOS related values:
   EMIN   =  10.00;   EMAX   =-10.00  energy-range for DOS
   EFERMI =   0.00;   METHOD = LEGACY      
   ISMEAR =     0;   SIGMA  =   0.01  broadening in eV -4-tet -1-fermi 0-gaus

 Electronic relaxation 2 (details)
   IALGO  =     38    algorithm
   LDIAG  =      T    sub-space diagonalisation (order eigenvalues)
   LSUBROT=      F    optimize rotation matrix (better conditioning)
   TURBO    =      0    0=normal 1=particle mesh
   IRESTART =      0    0=no restart 2=restart with 2 vectors
   NREBOOT  =      0    no. of reboots
   NMIN     =      0    reboot dimension
   EREF     =   0.00    reference energy to select bands
   IMIX   =      1    mixing-type and parameters
     AMIX     =   0.40;   BMIX     =  1.00
     AMIX_MAG =   1.60;   BMIX_MAG =  1.00
     AMIN     =   0.10
     WC   =   100.;   INIMIX=   1;  MIXPRE=   1;  MAXMIX= -45

 Intra band minimization:
   WEIMIN = 0.0000     energy-eigenvalue tresh-hold
   EBREAK =  0.30E-07  absolut break condition
   DEPER  =   0.30     relativ break condition  

   TIME   =   0.40     timestep for ELM

  volume/ion in A,a.u.               =      28.97       195.51
  Fermi-wavevector in a.u.,A,eV,Ry     =   0.946550  1.788720 12.190234  0.895957
  Thomas-Fermi vector in A             =   2.074558
 
 Write flags
   LWAVE        =      T    write WAVECAR
   LDOWNSAMPLE  =      F    k-point downsampling of WAVECAR
   LCHARG       =      T    write CHGCAR
   LVTOT        =      T    write LOCPOT, total local potential
   LVHAR        =      F    write LOCPOT, Hartree potential only
   LELF         =      F    write electronic localiz. function (ELF)
   LORBIT       =     11    0 simple, 1 ext, 2 COOP (PROOUT), +10 PAW based schemes


 Dipole corrections
   LMONO  =      F    monopole corrections only (constant potential shift)
   LDIPOL =      F    correct potential (dipole corrections)
   IDIPOL =      0    1-x, 2-y, 3-z, 4-all directions 
   EPSILON=  1.0000000 bulk dielectric constant

 Exchange correlation treatment:
   GGA     =    PE    GGA type
   LEXCH   =     8    internal setting for exchange type
   LIBXC   =     F    Libxc                    
   VOSKOWN =     0    Vosko Wilk Nusair interpolation
   EXXOEP  =     0    0=HF, 1=EXX-LHF (local Hartree Fock) 2=EXX OEP
   LHFCALC =     T    Hartree Fock is set to
   LSYMGRAD=     F    symmetrize gradient (conserves proper symmetry)
   PRECFOCK=accur.    Normal, Fast or Accurate (Low or Medium for compatibility)
   LRHFCALC=     F    long range Hartree Fock
   LRSCOR  =     F    long range correlation only (use DFT for short range part)
   LTHOMAS =     F    Thomas Fermi screening in HF
   LMODELHF=     F    short range full HF, long range fraction AEXX
   FOCKCORR=     1    mode to apply convergence corrections
   LFOCKACE=     T    use Adeptively-Compressed-Exchange operator
   ENCUT4O =  -1.0   cutoff for four orbital integrals eV
   LMAXFOCK=     4    L truncation for augmentation on plane wave grid
   LMAXFOCKAE=  -1    L truncation for all-electron charge restoration on plane wave grid
   NMAXFOCKAE=   1    number of basis functions for all-electron charge restoration
   LFOCKAEDFT=     F  apply the AE augmentation even for DFT
   NKREDX  =     1    reduce k-point grid by
   NKREDY  =     1    reduce k-point grid by
   NKREDZ  =     1    reduce k-point grid by
   SHIFTRED=     F    shift reduced grid of Gamma
   HFKIDENT=     F    idential grid for each k-point
   ODDONLY =     F    use only odd q-grid points
   EVENONLY=     F    use only even q-grid points
   HFALPHA =   -1.0000 decay constant for conv. correction
   MCALPHA =    0.0000 extent of test-charge in conv. correction in multipole expansion
   AEXX    =    0.2500 exact exchange contribution
   HFSCREEN=    0.2000 screening length (either q_TF or 0.3 A-1)
   HFSCREENC=   0.2000 screening length for correlation (either q_TF or 0.3 A-1)
   HFRCUT  =    0.0000 spherical cutoff for potential kernel
   ALDAX   =    0.7500 LDA exchange part
   AGGAX   =    0.7500 GGA exchange part
   ALDAC   =    1.0000 LDA correlation
   AGGAC   =    1.0000 GGA correlation
   ENCUTFOCK=  -1.0 apply spherical cutoff to Coloumb kernel
   NBANDSGWLOW=     1    first orbital included in HF term
   NBLOCK_FOCK=    64    blocking factor in FOCK_ACC

 Linear response parameters
   LEPSILON=     F    determine dielectric tensor
   LRPA    =     F    only Hartree local field effects (RPA)
   LNABLA  =     F    use nabla operator in PAW spheres
   LVEL    =     F    velocity operator in full k-point grid
   CSHIFT  =0.1000    complex shift for real part using Kramers Kronig
   OMEGAMAX=  -1.0    maximum frequency
   DEG_THRESHOLD= 0.2000000E-02 threshold for treating states as degnerate
   RTIME   =   -0.100 relaxation time in fs
  (WPLASMAI=    0.000 imaginary part of plasma frequency in eV, 0.658/RTIME)
   DFIELD  = 0.0000000 0.0000000 0.0000000 field for delta impulse in time
 
  Optional k-point grid parameters
   LKPOINTS_OPT  =     F    use optional k-point grid
   KPOINTS_OPT_MODE=     1    mode for optional k-point grid
 
 Orbital magnetization related:
   ORBITALMAG=     F  switch on orbital magnetization
   LCHIMAG   =     F  perturbation theory with respect to B field
   DQ        =  0.001000  dq finite difference perturbation B field
   LLRAUG    =     F  two centre corrections for induced B field
   LBONE     =     F  B-component reconstruction in AE one-centre
   LVGVCALC  =     T  calculate vGv susceptibility
   LVGVAPPL  =     F  apply vGv susceptibility instead of pGv for G=0

 Random number generation:
   RANDOM_GENERATOR = DEFAULT
   PCG_SEED         = not used


--------------------------------------------------------------------------------------------------------


 Static calculation
 charge density and potential will be updated during run
 spin polarized calculation
 Variant of blocked Davidson
 Davidson routine will perform the subspace rotation
 perform sub-space diagonalisation
    after iterative eigenvector-optimisation
 Kerker-like  mixing scheme
 using additional bands           28
 reciprocal scheme for non local part
 use partial core corrections
 calculate Harris-corrections to forces 
   (improved forces if not selfconsistent)
 use gradient corrections 
 use of overlap-Matrix (Vanderbilt PP)
 Gauss-broadening in eV      SIGMA  =   0.01


--------------------------------------------------------------------------------------------------------


  energy-cutoff  :      680.00
  volume of cell :      579.44
      direct lattice vectors                 reciprocal lattice vectors
     4.001556870  0.000000000  0.000000000     0.249902733  0.000000000  0.000000000
    -0.000000000 11.713629710  0.000000000     0.000000000  0.085370634  0.000000000
     0.000000000  0.000000000 12.362073200    -0.000000000 -0.000000000  0.080892580

  length of vectors
     4.001556870 11.713629710 12.362073200     0.249902733  0.085370634  0.080892580


 
 k-points in units of 2pi/SCALE and weight: k-points for static calculation at speci
   0.00000000  0.00000000  0.00000000       0.333
   0.00000000  0.04268532  0.00000000       0.333
  -0.00000000 -0.00000000  0.04044629       0.333
 
 k-points in reciprocal lattice and weights: k-points for static calculation at speci
   0.00000000  0.00000000  0.00000000       0.333
   0.00000000  0.50000000  0.00000000       0.333
   0.00000000  0.00000000  0.50000000       0.333
 
 position of ions in fractional coordinates (direct lattice) 
   0.75000000  0.03809460  0.14032237
   0.25000000  0.96190540  0.85967763
   0.25000000  0.53809460  0.35967763
   0.75000000  0.46190540  0.64032237
   0.25000000  0.32959138  0.03381284
   0.75000000  0.67040862  0.96618716
   0.75000000  0.82959138  0.46618716
   0.25000000  0.17040862  0.53381284
   0.75000000  0.12752536  0.94834520
   0.25000000  0.87247464  0.05165480
   0.25000000  0.62752536  0.55165480
   0.75000000  0.37247464  0.44834520
   0.25000000  0.19210067  0.20533132
   0.75000000  0.80789933  0.79466868
   0.75000000  0.69210067  0.29466868
   0.25000000  0.30789933  0.70533132
   0.75000000  0.05409869  0.62734915
   0.25000000  0.94590131  0.37265085
   0.25000000  0.55409869  0.87265085
   0.75000000  0.44590131  0.12734915
 
 position of ions in cartesian coordinates  (Angst):
   3.00116765  0.44622604  1.73467541
   1.00038922 11.26740367 10.62739779
   1.00038922  6.30304089  4.44636119
   3.00116765  5.41058882  7.91571201
   1.00038922  3.86071138  0.41799680
   3.00116765  7.85291833 11.94407640
   3.00116765  9.71752624  5.76303980
   1.00038922  1.99610347  6.59903340
   3.00116765  1.49378485 11.72351278
   1.00038922 10.21984486  0.63856042
   1.00038922  7.35059970  6.81959702
   3.00116765  4.36303001  5.54247618
   1.00038922  2.25019612  2.53832081
   3.00116765  9.46343359  9.82375239
   3.00116765  8.10701097  3.64271579
   1.00038922  3.60661874  8.71935741
   3.00116765  0.63369202  7.75533611
   1.00038922 11.07993769  4.60673709
   1.00038922  6.49050688 10.78777369
   3.00116765  5.22312283  1.57429951
 


--------------------------------------------------------------------------------------------------------


 k-point   1 :   0.0000 0.0000 0.0000  plane waves:   23349
 k-point   2 :   0.0000 0.5000 0.0000  plane waves:   23390
 k-point   3 :   0.0000 0.0000 0.5000  plane waves:   23420

 maximum and minimum number of plane-waves per node :      2358     2319

 maximum number of plane-waves:     23420
 maximum index in each direction: 
   IXMAX=    8   IYMAX=   24   IZMAX=   26
   IXMIN=   -8   IYMIN=  -25   IZMIN=  -26


 parallel 3D FFT for wavefunctions:
    minimum data exchange during FFTs selected (reduces bandwidth)
 parallel 3D FFT for charge:
    minimum data exchange during FFTs selected (reduces bandwidth)

 
 Radii for the augmentation spheres in the non-local exchange
 for species   1 augmentation radius   1.464 (default was   1.171)
       energy cutoff for augmentation   2720.0
 for species   2 augmentation radius   1.351 (default was   1.081)
       energy cutoff for augmentation   2720.0

 real space projection operators:
  total allocation   :      30033.59 KBytes
  max/ min on nodes  :       3432.81       2558.59

 Maximum index for augmentation-charges in exchange         1106
  SETUP_FOCK is finished

 total amount of memory used by VASP MPI-rank0    52204. kBytes
=======================================================================

   base      :      30000. kBytes
   nonl-proj :       2220. kBytes
   fftplans  :       4006. kBytes
   grid      :       6950. kBytes
   one-center:         32. kBytes
   HF        :         67. kBytes
   nonlr-proj:       7325. kBytes
   wavefun   :       1604. kBytes
 
     INWAV:  cpu time      0.0000: real time      0.0000
 initial charge density was supplied:
 charge density of overlapping atoms calculated
 number of electron     112.0000000 magnetization      12.0000000
 keeping initial charge density in first step


--------------------------------------------------------------------------------------------------------


 Maximum index for augmentation-charges          349 (set IRDMAX)


--------------------------------------------------------------------------------------------------------


 First call to EWALD:  gamma=   0.213
 Maximum number of real-space cells 5x 2x 2
 Maximum number of reciprocal cells 2x 4x 4

    FEWALD:  cpu time      0.0029: real time      0.0029


--------------------------------------- Ionic step        1  -------------------------------------------




--------------------------------------- Iteration      1(   1)  ---------------------------------------


    POTLOK:  cpu time      0.0848: real time      0.2357
    SETDIJ:  cpu time      0.4207: real time      0.4222
     EDDAV:  cpu time      0.8795: real time      2.4069
       DOS:  cpu time      0.0040: real time      0.0044
    --------------------------------------------
      LOOP:  cpu time      1.3891: real time      3.0693

 eigenvalue-minimisations  :  1008
 total energy-change (2. order) :-0.1489569E+05  (-0.4837393E+04)
 number of electron     112.0000000 magnetization      12.0000000
 augmentation part      112.0000000 magnetization      12.0000000

 Free energy of the ion-electron system (eV)
  ---------------------------------------------------
  alpha Z        PSCENC =       116.37456510
  Ewald energy   TEWEN  =     -4031.12465643
  -Hartree energ DENC   =      -480.58316384
  -exchange      EXHF   =         0.00000000
  -V(xc)+E(xc)   XCENC  =      -376.25511299
  PAW double counting   =      3832.50745354   -18799.75065889
  entropy T*S    EENTRO =        -0.00000000
  eigenvalues    EBANDS =       589.67785488
  atomic energy  EATOM  =      4253.45924273
  Solvation  Ediel_sol  =         0.00000000
  ---------------------------------------------------
  free energy    TOTEN  =    -14895.69447591 eV

  energy without entropy =   -14895.69447591  energy(sigma->0) =   -14895.69447591
  exchange ACFDT corr.  =         0.00000000  see jH, gK, PRB 81, 115126


--------------------------------------------------------------------------------------------------------




--------------------------------------- Iteration      1(   2)  ---------------------------------------


     EDDAV:  cpu time      0.6240: real time      0.6818
       DOS:  cpu time      0.0003: real time      0.0003
    --------------------------------------------
      LOOP:  cpu time      0.6243: real time      0.6821

 eigenvalue-minimisations  :  1416
 total energy-change (2. order) :-0.7666422E+03  (-0.7305430E+03)
 number of electron     112.0000000 magnetization      12.0000000
 augmentation part      112.0000000 magnetization      12.0000000

 Free energy of the ion-electron system (eV)
  ---------------------------------------------------
  alpha Z        PSCENC =       116.37456510
  Ewald energy   TEWEN  =     -4031.12465643
  -Hartree energ DENC   =      -480.58316384
  -exchange      EXHF   =         0.00000000
  -V(xc)+E(xc)   XCENC  =      -376.25511299
  PAW double counting   =      3832.50745354   -18799.75065889
  entropy T*S    EENTRO =        -0.00000000
  eigenvalues    EBANDS =      -176.96438056
  atomic energy  EATOM  =      4253.45924273
  Solvation  Ediel_sol  =         0.00000000
  ---------------------------------------------------
  free energy    TOTEN  =    -15662.33671135 eV

  energy without entropy =   -15662.33671135  energy(sigma->0) =   -15662.33671135
  exchange ACFDT corr.  =         0.00000000  see jH, gK, PRB 81, 115126


--------------------------------------------------------------------------------------------------------




--------------------------------------- Iteration      1(   3)  ---------------------------------------


     EDDAV:  cpu time      0.6341: real time      0.6357
       DOS:  cpu time      0.0002: real time      0.0003
    --------------------------------------------
      LOOP:  cpu time      0.6343: real time      0.6360

 eigenvalue-minimisations  :  1224
 total energy-change (2. order) :-0.8824088E+02  (-0.8596614E+02)
 number of electron     112.0000000 magnetization      12.0000000
 augmentation part      112.0000000 magnetization      12.0000000

 Free energy of the ion-electron system (eV)
  ---------------------------------------------------
  alpha Z        PSCENC =       116.37456510
  Ewald energy   TEWEN  =     -4031.12465643
  -Hartree energ DENC   =      -480.58316384
  -exchange      EXHF   =         0.00000000
  -V(xc)+E(xc)   XCENC  =      -376.25511299
  PAW double counting   =      3832.50745354   -18799.75065889
  entropy T*S    EENTRO =        -0.00000000
  eigenvalues    EBANDS =      -265.20525784
  atomic energy  EATOM  =      4253.45924273
  Solvation  Ediel_sol  =         0.00000000
  ---------------------------------------------------
  free energy    TOTEN  =    -15750.57758864 eV

  energy without entropy =   -15750.57758864  energy(sigma->0) =   -15750.57758864
  exchange ACFDT corr.  =         0.00000000  see jH, gK, PRB 81, 115126


--------------------------------------------------------------------------------------------------------




--------------------------------------- Iteration      1(   4)  ---------------------------------------


     EDDAV:  cpu time      0.5461: real time      0.5480
       DOS:  cpu time      0.0003: real time      0.0003
    --------------------------------------------
      LOOP:  cpu time      0.5463: real time      0.5483

 eigenvalue-minimisations  :  1116
 total energy-change (2. order) :-0.2232099E+01  (-0.2217475E+01)
 number of electron     112.0000000 magnetization      12.0000000
 augmentation part      112.0000000 magnetization      12.0000000

 Free energy of the ion-electron system (eV)
  ---------------------------------------------------
  alpha Z        PSCENC =       116.37456510
  Ewald energy   TEWEN  =     -4031.12465643
  -Hartree energ DENC   =      -480.58316384
  -exchange      EXHF   =         0.00000000
  -V(xc)+E(xc)   XCENC  =      -376.25511299
  PAW double counting   =      3832.50745354   -18799.75065889
  entropy T*S    EENTRO =        -0.00000000
  eigenvalues    EBANDS =      -267.43735648
  atomic energy  EATOM  =      4253.45924273
  Solvation  Ediel_sol  =         0.00000000
  ---------------------------------------------------
  free energy    TOTEN  =    -15752.80968727 eV

  energy without entropy =   -15752.80968727  energy(sigma->0) =   -15752.80968727
  exchange ACFDT corr.  =         0.00000000  see jH, gK, PRB 81, 115126


--------------------------------------------------------------------------------------------------------




--------------------------------------- Iteration      1(   5)  ---------------------------------------


    POTLOK:  cpu time      0.1495: real time      0.1501
    SETDIJ:  cpu time      0.9716: real time      0.9739
     EDDAV:  cpu time     25.1581: real time     25.2559
       DOS:  cpu time      0.0004: real time      0.0004
    CHARGE:  cpu time      0.0320: real time      0.0786
    MIXING:  cpu time      0.0004: real time      0.0004
    --------------------------------------------
      LOOP:  cpu time     26.3119: real time     26.4593

 eigenvalue-minimisations  :  1008
 total energy-change (2. order) : 0.1567404E+05  (-0.5327195E+01)
 number of electron     111.9999998 magnetization      -7.2000000
 augmentation part      -20.3227454 magnetization      -7.1854446

 Free energy of the ion-electron system (eV)
  ---------------------------------------------------
  alpha Z        PSCENC =       116.37456510
  Ewald energy   TEWEN  =     -4031.12465643
  -Hartree energ DENC   =      -480.58316384
  -exchange      EXHF   =       178.83469686
  -V(xc)+E(xc)   XCENC  =      -306.70569233
  PAW double counting   =      3757.50824271    -3276.41166639
  entropy T*S    EENTRO =        -0.00000000
  eigenvalues    EBANDS =      -290.12134087
  atomic energy  EATOM  =      4253.45924273
  Solvation  Ediel_sol  =         0.00000000
  ---------------------------------------------------
  free energy    TOTEN  =       -78.76977247 eV

  energy without entropy =      -78.76977247  energy(sigma->0) =      -78.76977247
  exchange ACFDT corr.  =         0.00000000  see jH, gK, PRB 81, 115126


--------------------------------------------------------------------------------------------------------




--------------------------------------- Iteration      1(   6)  ---------------------------------------


    POTLOK:  cpu time      0.1370: real time      0.1376
    SETDIJ:  cpu time      0.9236: real time      0.9257
     EDDAV:  cpu time     25.0492: real time     25.1125
       DOS:  cpu time      0.0003: real time      0.0003
    CHARGE:  cpu time      0.0307: real time      0.0308
    MIXING:  cpu time      0.0005: real time      0.0005
    --------------------------------------------
      LOOP:  cpu time     26.1413: real time     26.2074

 eigenvalue-minimisations  :  1092
 total energy-change (2. order) : 0.6705407E+01  (-0.1136248E+01)
 number of electron     111.9999997 magnetization       4.3200000
 augmentation part      -19.6631049 magnetization       4.2780753

 Free energy of the ion-electron system (eV)
  ---------------------------------------------------
  alpha Z        PSCENC =       116.37456510
  Ewald energy   TEWEN  =     -4031.12465643
  -Hartree energ DENC   =      -518.64035210
  -exchange      EXHF   =       177.88880829
  -V(xc)+E(xc)   XCENC  =      -304.31622824
  PAW double counting   =      6700.97174662    -6220.91045848
  entropy T*S    EENTRO =        -0.00000000
  eigenvalues    EBANDS =      -245.76703308
  atomic energy  EATOM  =      4253.45924273
  Solvation  Ediel_sol  =         0.00000000
  ---------------------------------------------------
  free energy    TOTEN  =       -72.06436560 eV

  energy without entropy =      -72.06436560  energy(sigma->0) =      -72.06436560
  exchange ACFDT corr.  =         0.00000000  see jH, gK, PRB 81, 115126


--------------------------------------------------------------------------------------------------------




--------------------------------------- Iteration      1(   7)  ---------------------------------------


    POTLOK:  cpu time      0.1371: real time      0.1377
    SETDIJ:  cpu time      0.9242: real time      0.9264
     EDDAV:  cpu time     25.1088: real time     25.1683
       DOS:  cpu time      0.0004: real time      0.0004
    CHARGE:  cpu time      0.0290: real time      0.0291
    MIXING:  cpu time      0.0007: real time      0.0007
    --------------------------------------------
      LOOP:  cpu time     26.2001: real time     26.2625

 eigenvalue-minimisations  :  1116
 total energy-change (2. order) :-0.1254083E+01  (-0.5498037E+00)
 number of electron     111.9999997 magnetization      -2.5920000
 augmentation part      -19.4017326 magnetization      -2.5704635

 Free energy of the ion-electron system (eV)
  ---------------------------------------------------
  alpha Z        PSCENC =       116.37456510
  Ewald energy   TEWEN  =     -4031.12465643
  -Hartree energ DENC   =      -530.01347168
  -exchange      EXHF   =       172.67497894
  -V(xc)+E(xc)   XCENC  =      -303.47387612
  PAW double counting   =     10986.84963942   -10507.16311445
  entropy T*S    EENTRO =        -0.00000000
  eigenvalues    EBANDS =      -230.90175607
  atomic energy  EATOM  =      4253.45924273
  Solvation  Ediel_sol  =         0.00000000
  ---------------------------------------------------
  free energy    TOTEN  =       -73.31844858 eV

  energy without entropy =      -73.31844858  energy(sigma->0) =      -73.31844858
  exchange ACFDT corr.  =         0.00000000  see jH, gK, PRB 81, 115126


--------------------------------------------------------------------------------------------------------




--------------------------------------- Iteration      1(   8)  ---------------------------------------


    POTLOK:  cpu time      0.1575: real time      0.1580
    SETDIJ:  cpu time      0.9796: real time      0.9820
     EDDAV:  cpu time     25.3944: real time     25.4576
       DOS:  cpu time      0.0003: real time      0.0003
    CHARGE:  cpu time      0.0283: real time      0.0284
    MIXING:  cpu time      0.0005: real time      0.0005
    --------------------------------------------
      LOOP:  cpu time     26.5607: real time     26.6268

 eigenvalue-minimisations  :  1140
 total energy-change (2. order) :-0.1407661E+00  (-0.3445509E-01)
 number of electron     111.9999997 magnetization       1.5552000
 augmentation part      -19.4150662 magnetization       1.5425620

 Free energy of the ion-electron system (eV)
  ---------------------------------------------------
  alpha Z        PSCENC =       116.37456510
  Ewald energy   TEWEN  =     -4031.12465643
  -Hartree energ DENC   =      -528.18575453
  -exchange      EXHF   =       169.91014451
  -V(xc)+E(xc)   XCENC  =      -303.26409556
  PAW double counting   =     14859.89154961   -14380.32855617
  entropy T*S    EENTRO =        -0.00000000
  eigenvalues    EBANDS =      -230.19165391
  atomic energy  EATOM  =      4253.45924273
  Solvation  Ediel_sol  =         0.00000000
  ---------------------------------------------------
  free energy    TOTEN  =       -73.45921465 eV

  energy without entropy =      -73.45921465  energy(sigma->0) =      -73.45921465
  exchange ACFDT corr.  =         0.00000000  see jH, gK, PRB 81, 115126


--------------------------------------------------------------------------------------------------------




--------------------------------------- Iteration      1(   9)  ---------------------------------------


    POTLOK:  cpu time      0.2182: real time      0.2196
    SETDIJ:  cpu time      0.9236: real time      0.9257
     EDDAV:  cpu time     25.0847: real time     25.1486
       DOS:  cpu time      0.0003: real time      0.0003
    CHARGE:  cpu time      0.0300: real time      0.0300
    MIXING:  cpu time      0.0006: real time      0.0006
    --------------------------------------------
      LOOP:  cpu time     26.2573: real time     26.3248

 eigenvalue-minimisations  :  1140
 total energy-change (2. order) : 0.4022444E-01  (-0.1719998E-01)
 number of electron     111.9999996 magnetization      -0.9331200
 augmentation part      -19.4614672 magnetization      -0.9257217

 Free energy of the ion-electron system (eV)
  ---------------------------------------------------
  alpha Z        PSCENC =       116.37456510
  Ewald energy   TEWEN  =     -4031.12465643
  -Hartree energ DENC   =      -526.58228334
  -exchange      EXHF   =       169.77976507
  -V(xc)+E(xc)   XCENC  =      -303.14649255
  PAW double counting   =     17358.53112193   -16879.05168019
  entropy T*S    EENTRO =        -0.00000000
  eigenvalues    EBANDS =      -231.65857253
  atomic energy  EATOM  =      4253.45924273
  Solvation  Ediel_sol  =         0.00000000
  ---------------------------------------------------
  free energy    TOTEN  =       -73.41899021 eV

  energy without entropy =      -73.41899021  energy(sigma->0) =      -73.41899021
  exchange ACFDT corr.  =         0.00000000  see jH, gK, PRB 81, 115126


--------------------------------------------------------------------------------------------------------




--------------------------------------- Iteration      1(  10)  ---------------------------------------


    POTLOK:  cpu time      0.1366: real time      0.1371
    SETDIJ:  cpu time      0.9216: real time      0.9238
     EDDAV:  cpu time     25.3042: real time     25.3680
       DOS:  cpu time      0.0005: real time      0.0005
    CHARGE:  cpu time      0.0515: real time      0.0516
    MIXING:  cpu time      0.0013: real time      0.0013
    --------------------------------------------
      LOOP:  cpu time     26.4157: real time     26.4823

 eigenvalue-minimisations  :  1152
 total energy-change (2. order) :-0.2860716E-01  (-0.8165964E-02)
 number of electron     111.9999996 magnetization       0.5598720
 augmentation part      -19.4911260 magnetization       0.5538735

 Free energy of the ion-electron system (eV)
  ---------------------------------------------------
  alpha Z        PSCENC =       116.37456510
  Ewald energy   TEWEN  =     -4031.12465643
  -Hartree energ DENC   =      -526.97830493
  -exchange      EXHF   =       170.19942815
  -V(xc)+E(xc)   XCENC  =      -302.99186702
  PAW double counting   =     18703.37785255   -18223.97101322
  entropy T*S    EENTRO =        -0.00000000
  eigenvalues    EBANDS =      -231.79284430
  atomic energy  EATOM  =      4253.45924273
  Solvation  Ediel_sol  =         0.00000000
  ---------------------------------------------------
  free energy    TOTEN  =       -73.44759738 eV

  energy without entropy =      -73.44759738  energy(sigma->0) =      -73.44759738
  exchange ACFDT corr.  =         0.00000000  see jH, gK, PRB 81, 115126


--------------------------------------------------------------------------------------------------------




--------------------------------------- Iteration      1(  11)  ---------------------------------------


    POTLOK:  cpu time      0.1919: real time      0.1926
    SETDIJ:  cpu time      1.1371: real time      1.1398
     EDDAV:  cpu time     25.4996: real time     25.5957
       DOS:  cpu time      0.0003: real time      0.0003
    CHARGE:  cpu time      0.0277: real time      0.0278
    MIXING:  cpu time      0.0006: real time      0.0006
    --------------------------------------------
      LOOP:  cpu time     26.8571: real time     26.9568

 eigenvalue-minimisations  :  1128
 total energy-change (2. order) :-0.5761997E-02  (-0.1110413E-02)
 number of electron     111.9999996 magnetization      -0.3359232
 augmentation part      -19.4963079 magnetization      -0.3337004

 Free energy of the ion-electron system (eV)
  ---------------------------------------------------
  alpha Z        PSCENC =       116.37456510
  Ewald energy   TEWEN  =     -4031.12465643
  -Hartree energ DENC   =      -528.13359786
  -exchange      EXHF   =       170.43057666
  -V(xc)+E(xc)   XCENC  =      -302.85221494
  PAW double counting   =     19484.12641635   -19004.76669427
  entropy T*S    EENTRO =        -0.00000000
  eigenvalues    EBANDS =      -230.96699671
  atomic energy  EATOM  =      4253.45924273
  Solvation  Ediel_sol  =         0.00000000
  ---------------------------------------------------
  free energy    TOTEN  =       -73.45335938 eV

  energy without entropy =      -73.45335938  energy(sigma->0) =      -73.45335938
  exchange ACFDT corr.  =         0.00000000  see jH, gK, PRB 81, 115126


--------------------------------------------------------------------------------------------------------




--------------------------------------- Iteration      1(  12)  ---------------------------------------


    POTLOK:  cpu time      0.1368: real time      0.1373
    SETDIJ:  cpu time      0.9225: real time      0.9247
     EDDAV:  cpu time     25.2064: real time     25.2701
       DOS:  cpu time      0.0003: real time      0.0003
    CHARGE:  cpu time      0.0301: real time      0.0302
    MIXING:  cpu time      0.0006: real time      0.0006
    --------------------------------------------
      LOOP:  cpu time     26.2967: real time     26.3631

 eigenvalue-minimisations  :  1140
 total energy-change (2. order) :-0.2173813E-02  (-0.5925401E-03)
 number of electron     111.9999996 magnetization       0.2015539
 augmentation part      -19.4961006 magnetization       0.1994127

 Free energy of the ion-electron system (eV)
  ---------------------------------------------------
  alpha Z        PSCENC =       116.37456510
  Ewald energy   TEWEN  =     -4031.12465643
  -Hartree energ DENC   =      -528.96163465
  -exchange      EXHF   =       170.42622149
  -V(xc)+E(xc)   XCENC  =      -302.76166700
  PAW double counting   =     19990.84740588   -19511.51370040
  entropy T*S    EENTRO =        -0.00000000
  eigenvalues    EBANDS =      -230.20130991
  atomic energy  EATOM  =      4253.45924273
  Solvation  Ediel_sol  =         0.00000000
  ---------------------------------------------------
  free energy    TOTEN  =       -73.45553319 eV

  energy without entropy =      -73.45553319  energy(sigma->0) =      -73.45553319
  exchange ACFDT corr.  =         0.00000000  see jH, gK, PRB 81, 115126


--------------------------------------------------------------------------------------------------------




--------------------------------------- Iteration      1(  13)  ---------------------------------------


    POTLOK:  cpu time      0.1364: real time      0.1369
    SETDIJ:  cpu time      0.9237: real time      0.9259
     EDDAV:  cpu time     25.3227: real time     25.3872
       DOS:  cpu time      0.0004: real time      0.0004
    CHARGE:  cpu time      0.0311: real time      0.0312
    MIXING:  cpu time      0.0005: real time      0.0005
    --------------------------------------------
      LOOP:  cpu time     26.4148: real time     26.4821

 eigenvalue-minimisations  :  1128
 total energy-change (2. order) :-0.1519107E-02  (-0.1802707E-03)
 number of electron     111.9999996 magnetization      -0.1209324
 augmentation part      -19.4950308 magnetization      -0.1200526

 Free energy of the ion-electron system (eV)
  ---------------------------------------------------
  alpha Z        PSCENC =       116.37456510
  Ewald energy   TEWEN  =     -4031.12465643
  -Hartree energ DENC   =      -529.35229777
  -exchange      EXHF   =       170.36741584
  -V(xc)+E(xc)   XCENC  =      -302.71376577
  PAW double counting   =     20328.72832175   -19849.40689904
  entropy T*S    EENTRO =        -0.00000000
  eigenvalues    EBANDS =      -229.78897869
  atomic energy  EATOM  =      4253.45924273
  Solvation  Ediel_sol  =         0.00000000
  ---------------------------------------------------
  free energy    TOTEN  =       -73.45705230 eV

  energy without entropy =      -73.45705230  energy(sigma->0) =      -73.45705230
  exchange ACFDT corr.  =         0.00000000  see jH, gK, PRB 81, 115126


--------------------------------------------------------------------------------------------------------




--------------------------------------- Iteration      1(  14)  ---------------------------------------


    POTLOK:  cpu time      0.1379: real time      0.1385
    SETDIJ:  cpu time      1.0238: real time      1.0262
     EDDAV:  cpu time     25.5001: real time     25.5649
       DOS:  cpu time      0.0003: real time      0.0003
    CHARGE:  cpu time      0.0279: real time      0.0279
    MIXING:  cpu time      0.0005: real time      0.0005
    --------------------------------------------
      LOOP:  cpu time     26.6904: real time     26.7583

 eigenvalue-minimisations  :  1116
 total energy-change (2. order) :-0.6021496E-03  (-0.4360916E-04)
 number of electron     111.9999996 magnetization       0.0725594
 augmentation part      -19.4955683 magnetization       0.0719202

 Free energy of the ion-electron system (eV)
  ---------------------------------------------------
  alpha Z        PSCENC =       116.37456510
  Ewald energy   TEWEN  =     -4031.12465643
  -Hartree energ DENC   =      -529.52263888
  -exchange      EXHF   =       170.33816970
  -V(xc)+E(xc)   XCENC  =      -302.68756771
  PAW double counting   =     20538.76874964   -20059.45388766
  entropy T*S    EENTRO =        -0.00000000
  eigenvalues    EBANDS =      -229.60963093
  atomic energy  EATOM  =      4253.45924273
  Solvation  Ediel_sol  =         0.00000000
  ---------------------------------------------------
  free energy    TOTEN  =       -73.45765444 eV

  energy without entropy =      -73.45765444  energy(sigma->0) =      -73.45765444
  exchange ACFDT corr.  =         0.00000000  see jH, gK, PRB 81, 115126


--------------------------------------------------------------------------------------------------------




--------------------------------------- Iteration      1(  15)  ---------------------------------------


    POTLOK:  cpu time      0.1374: real time      0.1378
    SETDIJ:  cpu time      0.9235: real time      0.9257
     EDDAV:  cpu time     24.9876: real time     25.0524
       DOS:  cpu time      0.0003: real time      0.0003
    CHARGE:  cpu time      0.0290: real time      0.0291
    MIXING:  cpu time      0.0011: real time      0.0011
    --------------------------------------------
      LOOP:  cpu time     26.0789: real time     26.1464

 eigenvalue-minimisations  :  1092
 total energy-change (2. order) :-0.2973656E-03  (-0.2088333E-04)
 number of electron     111.9999996 magnetization      -0.0435356
 augmentation part      -19.4964371 magnetization      -0.0431400

 Free energy of the ion-electron system (eV)
  ---------------------------------------------------
  alpha Z        PSCENC =       116.37456510
  Ewald energy   TEWEN  =     -4031.12465643
  -Hartree energ DENC   =      -529.63014106
  -exchange      EXHF   =       170.33576814
  -V(xc)+E(xc)   XCENC  =      -302.67112802
  PAW double counting   =     20661.76507463   -20182.45409036
  entropy T*S    EENTRO =        -0.00000000
  eigenvalues    EBANDS =      -229.51258653
  atomic energy  EATOM  =      4253.45924273
  Solvation  Ediel_sol  =         0.00000000
  ---------------------------------------------------
  free energy    TOTEN  =       -73.45795181 eV

  energy without entropy =      -73.45795181  energy(sigma->0) =      -73.45795181
  exchange ACFDT corr.  =         0.00000000  see jH, gK, PRB 81, 115126


--------------------------------------------------------------------------------------------------------




--------------------------------------- Iteration      1(  16)  ---------------------------------------


    POTLOK:  cpu time      0.2198: real time      0.2205
    SETDIJ:  cpu time      0.9237: real time      0.9259
     EDDAV:  cpu time     25.3827: real time     25.4470
       DOS:  cpu time      0.0004: real time      0.0004
    CHARGE:  cpu time      0.0289: real time      0.0289
    MIXING:  cpu time      0.0006: real time      0.0006
    --------------------------------------------
      LOOP:  cpu time     26.5560: real time     26.6233

 eigenvalue-minimisations  :  1128
 total energy-change (2. order) :-0.1411965E-03  (-0.6463125E-05)
 number of electron     111.9999996 magnetization       0.0261214
 augmentation part      -19.4968142 magnetization       0.0259394

 Free energy of the ion-electron system (eV)
  ---------------------------------------------------
  alpha Z        PSCENC =       116.37456510
  Ewald energy   TEWEN  =     -4031.12465643
  -Hartree energ DENC   =      -529.71882169
  -exchange      EXHF   =       170.34018651
  -V(xc)+E(xc)   XCENC  =      -302.65987038
  PAW double counting   =     20733.06887532   -20253.76020986
  entropy T*S    EENTRO =        -0.00000000
  eigenvalues    EBANDS =      -229.43740430
  atomic energy  EATOM  =      4253.45924273
  Solvation  Ediel_sol  =         0.00000000
  ---------------------------------------------------
  free energy    TOTEN  =       -73.45809301 eV

  energy without entropy =      -73.45809301  energy(sigma->0) =      -73.45809301
  exchange ACFDT corr.  =         0.00000000  see jH, gK, PRB 81, 115126


--------------------------------------------------------------------------------------------------------




--------------------------------------- Iteration      1(  17)  ---------------------------------------


    POTLOK:  cpu time      0.1368: real time      0.1373
    SETDIJ:  cpu time      1.0054: real time      1.0077
     EDDAV:  cpu time     25.4131: real time     25.4773
       DOS:  cpu time      0.0003: real time      0.0003
    CHARGE:  cpu time      0.0275: real time      0.0275
    MIXING:  cpu time      0.0007: real time      0.0007
    --------------------------------------------
      LOOP:  cpu time     26.5836: real time     26.6508

 eigenvalue-minimisations  :  1008
 total energy-change (2. order) :-0.6706928E-04  (-0.2742326E-05)
 number of electron     111.9999996 magnetization      -0.0156728
 augmentation part      -19.4969084 magnetization      -0.0155365

 Free energy of the ion-electron system (eV)
  ---------------------------------------------------
  alpha Z        PSCENC =       116.37456510
  Ewald energy   TEWEN  =     -4031.12465643
  -Hartree energ DENC   =      -529.78663004
  -exchange      EXHF   =       170.34217782
  -V(xc)+E(xc)   XCENC  =      -302.65227866
  PAW double counting   =     20775.95468124   -20296.64732268
  entropy T*S    EENTRO =        -0.00000000
  eigenvalues    EBANDS =      -229.37793915
  atomic energy  EATOM  =      4253.45924273
  Solvation  Ediel_sol  =         0.00000000
  ---------------------------------------------------
  free energy    TOTEN  =       -73.45816008 eV

  energy without entropy =      -73.45816008  energy(sigma->0) =      -73.45816008
  exchange ACFDT corr.  =         0.00000000  see jH, gK, PRB 81, 115126


--------------------------------------------------------------------------------------------------------




--------------------------------------- Iteration      1(  18)  ---------------------------------------


    POTLOK:  cpu time      0.1365: real time      0.1376
    SETDIJ:  cpu time      0.9233: real time      0.9254
     EDDAV:  cpu time     25.1020: real time     25.1656
       DOS:  cpu time      0.0003: real time      0.0003
    CHARGE:  cpu time      0.0280: real time      0.0281
    MIXING:  cpu time      0.0006: real time      0.0006
    --------------------------------------------
      LOOP:  cpu time     26.1907: real time     26.2576

 eigenvalue-minimisations  :   816
 total energy-change (2. order) :-0.3346297E-04  (-0.1260550E-05)
 number of electron     111.9999996 magnetization       0.0094037
 augmentation part      -19.4969173 magnetization       0.0093425

 Free energy of the ion-electron system (eV)
  ---------------------------------------------------
  alpha Z        PSCENC =       116.37456510
  Ewald energy   TEWEN  =     -4031.12465643
  -Hartree energ DENC   =      -529.83167066
  -exchange      EXHF   =       170.34174411
  -V(xc)+E(xc)   XCENC  =      -302.64744871
  PAW double counting   =     20802.81175821   -20323.50506894
  entropy T*S    EENTRO =        -0.00000000
  eigenvalues    EBANDS =      -229.33665894
  atomic energy  EATOM  =      4253.45924273
  Solvation  Ediel_sol  =         0.00000000
  ---------------------------------------------------
  free energy    TOTEN  =       -73.45819354 eV

  energy without entropy =      -73.45819354  energy(sigma->0) =      -73.45819354
  exchange ACFDT corr.  =         0.00000000  see jH, gK, PRB 81, 115126


--------------------------------------------------------------------------------------------------------




--------------------------------------- Iteration      1(  19)  ---------------------------------------


    POTLOK:  cpu time      0.1370: real time      0.1375
    SETDIJ:  cpu time      0.9227: real time      0.9249
     EDDAV:  cpu time     25.2036: real time     25.2669
       DOS:  cpu time      0.0003: real time      0.0003
    CHARGE:  cpu time      0.0280: real time      0.0281
    MIXING:  cpu time      0.0005: real time      0.0005
    --------------------------------------------
      LOOP:  cpu time     26.2920: real time     26.3580

 eigenvalue-minimisations  :   768
 total energy-change (2. order) :-0.1653107E-04  (-0.5182914E-06)
 number of electron     111.9999996 magnetization      -0.0056422
 augmentation part      -19.4969168 magnetization      -0.0055969

 Free energy of the ion-electron system (eV)
  ---------------------------------------------------
  alpha Z        PSCENC =       116.37456510
  Ewald energy   TEWEN  =     -4031.12465643
  -Hartree energ DENC   =      -529.85974674
  -exchange      EXHF   =       170.34093496
  -V(xc)+E(xc)   XCENC  =      -302.64446053
  PAW double counting   =     20819.42135975   -20340.11499682
  entropy T*S    EENTRO =        -0.00000000
  eigenvalues    EBANDS =      -229.31045208
  atomic energy  EATOM  =      4253.45924273
  Solvation  Ediel_sol  =         0.00000000
  ---------------------------------------------------
  free energy    TOTEN  =       -73.45821007 eV

  energy without entropy =      -73.45821007  energy(sigma->0) =      -73.45821007
  exchange ACFDT corr.  =         0.00000000  see jH, gK, PRB 81, 115126


--------------------------------------------------------------------------------------------------------




--------------------------------------- Iteration      1(  20)  ---------------------------------------


    POTLOK:  cpu time      0.1397: real time      0.1402
    SETDIJ:  cpu time      0.9751: real time      0.9775
     EDDAV:  cpu time     25.2877: real time     25.3560
       DOS:  cpu time      0.0004: real time      0.0004
    --------------------------------------------
      LOOP:  cpu time     26.4030: real time     26.4740

 eigenvalue-minimisations  :   672
 total energy-change (2. order) :-0.8289665E-05  (-0.2458031E-06)
 number of electron     111.9999996 magnetization      -0.0056422
 augmentation part      -19.4969168 magnetization      -0.0055969

 Free energy of the ion-electron system (eV)
  ---------------------------------------------------
  alpha Z        PSCENC =       116.37456510
  Ewald energy   TEWEN  =     -4031.12465643
  -Hartree energ DENC   =      -529.87756496
  -exchange      EXHF   =       170.34054114
  -V(xc)+E(xc)   XCENC  =      -302.64258206
  PAW double counting   =     20829.66736990   -20350.36115543
  entropy T*S    EENTRO =        -0.00000000
  eigenvalues    EBANDS =      -229.29397835
  atomic energy  EATOM  =      4253.45924273
  Solvation  Ediel_sol  =         0.00000000
  ---------------------------------------------------
  free energy    TOTEN  =       -73.45821836 eV

  energy without entropy =      -73.45821836  energy(sigma->0) =      -73.45821836
  exchange ACFDT corr.  =         0.00000000  see jH, gK, PRB 81, 115126


--------------------------------------------------------------------------------------------------------




 average (electrostatic) potential at core
  the test charge radii are     1.1712  1.0808
  (the norm of the test charge is              1.0000)
       1 -85.3590       2 -85.3590       3 -85.3590       4 -85.3590       5 -85.4567
       6 -85.4567       7 -85.4567       8 -85.4567       9 -49.6626      10 -49.6626
      11 -49.6626      12 -49.6626      13 -49.7922      14 -49.7922      15 -49.7922
      16 -49.7922      17 -49.5970      18 -49.5970      19 -49.5970      20 -49.5970
 
 
 
 E-fermi :   3.8881     XC(G=0):  -7.4333     alpha+bet : -9.3892

 Fermi energy:         3.8881443965

 spin component 1

 k-point     1 :       0.0000    0.0000    0.0000
  band No.  band energies     occupation 
      1     -11.6698      1.00000
      2     -11.4516      1.00000
      3     -11.0369      1.00000
      4     -10.9243      1.00000
      5     -10.7638      1.00000
      6     -10.6101      1.00000
      7      -9.9966      1.00000
      8      -9.8628      1.00000
      9      -9.7585      1.00000
     10      -9.6034      1.00000
     11      -9.5758      1.00000
     12      -9.5470      1.00000
     13      -6.2469      1.00000
     14      -6.0422      1.00000
     15      -5.9374      1.00000
     16      -5.4761      1.00000
     17      -5.3949      1.00000
     18      -5.3435      1.00000
     19      -4.2301      1.00000
     20      -3.8908      1.00000
     21      -1.2998      1.00000
     22      -1.2175      1.00000
     23      -0.6974      1.00000
     24      -0.5739      1.00000
     25      -0.2983      1.00000
     26      -0.1518      1.00000
     27      -0.0990      1.00000
     28       0.0705      1.00000
     29       0.1921      1.00000
     30       0.4291      1.00000
     31       0.6219      1.00000
     32       0.7929      1.00000
     33       0.8046      1.00000
     34       0.9097      1.00000
     35       1.1045      1.00000
     36       1.2225      1.00000
     37       1.2633      1.00000
     38       1.2927      1.00000
     39       1.5386      1.00000
     40       1.5446      1.00000
     41       1.8276      1.00000
     42       2.2153      1.00000
     43       2.2171      1.00000
     44       2.3787      1.00000
     45       2.5018      1.00000
     46       2.6020      1.00000
     47       2.6458      1.00000
     48       2.6948      1.00000
     49       2.7043      1.00000
     50       2.7656      1.00000
     51       3.0075      1.00000
     52       3.1564      1.00000
     53       3.4676      1.00000
     54       3.6767      1.00000
     55       3.6851      1.00000
     56       3.7254      1.00000
     57       5.2856      0.00000
     58       5.3763      0.00000
     59       5.4536      0.00000
     60       5.6430      0.00000
     61       5.9671      0.00000
     62       6.0107      0.00000
     63       6.4391      0.00000
     64       6.5482      0.00000
     65       6.6339      0.00000
     66       6.6636      0.00000
     67       6.7992      0.00000
     68       6.9670      0.00000
     69       7.0307      0.00000
     70       7.0756      0.00000
     71       7.1366      0.00000
     72       7.3004      0.00000
     73       7.3324      0.00000
     74       7.6395      0.00000
     75       7.8617      0.00000
     76       8.0607      0.00000
     77       8.1946      0.00000
     78       8.6968      0.00000
     79       8.8607      0.00000
     80       8.9773      0.00000
     81       9.0447      0.00000
     82       9.4009      0.00000
     83      10.4499      0.00000
     84      10.7077      0.00000

 k-point     2 :       0.0000    0.5000    0.0000
  band No.  band energies     occupation 
      1     -11.5293      1.00000
      2     -11.5293      1.00000
      3     -11.1636      1.00000
      4     -11.1636      1.00000
      5     -10.3841      1.00000
      6     -10.3841      1.00000
      7     -10.1328      1.00000
      8     -10.1328      1.00000
      9      -9.6168      1.00000
     10      -9.6168      1.00000
     11      -9.5728      1.00000
     12      -9.5728      1.00000
     13      -6.1289      1.00000
     14      -6.1289      1.00000
     15      -5.9952      1.00000
     16      -5.9952      1.00000
     17      -4.9487      1.00000
     18      -4.9487      1.00000
     19      -4.1933      1.00000
     20      -4.1933      1.00000
     21      -1.1532      1.00000
     22      -1.1532      1.00000
     23      -0.9883      1.00000
     24      -0.9883      1.00000
     25      -0.3709      1.00000
     26      -0.3709      1.00000
     27       0.1127      1.00000
     28       0.1127      1.00000
     29       0.4110      1.00000
     30       0.4110      1.00000
     31       0.8469      1.00000
     32       0.8469      1.00000
     33       1.0727      1.00000
     34       1.0727      1.00000
     35       1.2876      1.00000
     36       1.2876      1.00000
     37       1.2881      1.00000
     38       1.2881      1.00000
     39       1.6030      1.00000
     40       1.6030      1.00000
     41       1.6577      1.00000
     42       1.6577      1.00000
     43       2.3257      1.00000
     44       2.3257      1.00000
     45       2.5991      1.00000
     46       2.5991      1.00000
     47       2.6581      1.00000
     48       2.6581      1.00000
     49       2.7680      1.00000
     50       2.7680      1.00000
     51       3.0190      1.00000
     52       3.0190      1.00000
     53       3.4712      1.00000
     54       3.4712      1.00000
     55       3.6480      1.00000
     56       3.6480      1.00000
     57       5.0889      0.00000
     58       5.0889      0.00000
     59       5.9698      0.00000
     60       5.9698      0.00000
     61       6.3949      0.00000
     62       6.3949      0.00000
     63       6.3950      0.00000
     64       6.3950      0.00000
     65       6.5144      0.00000
     66       6.5144      0.00000
     67       6.5871      0.00000
     68       6.5871      0.00000
     69       6.7453      0.00000
     70       6.7453      0.00000
     71       7.5447      0.00000
     72       7.5447      0.00000
     73       7.7020      0.00000
     74       7.7020      0.00000
     75       8.1344      0.00000
     76       8.1344      0.00000
     77       8.3503      0.00000
     78       8.3503      0.00000
     79       8.5787      0.00000
     80       8.5787      0.00000
     81       9.1922      0.00000
     82       9.1922      0.00000
     83      10.5349      0.00000
     84      10.5349      0.00000

 k-point     3 :       0.0000    0.0000    0.5000
  band No.  band energies     occupation 
      1     -11.5769      1.00000
      2     -11.5769      1.00000
      3     -10.9615      1.00000
      4     -10.9615      1.00000
      5     -10.7019      1.00000
      6     -10.7019      1.00000
      7      -9.9120      1.00000
      8      -9.9120      1.00000
      9      -9.6459      1.00000
     10      -9.6459      1.00000
     11      -9.6016      1.00000
     12      -9.6016      1.00000
     13      -6.2165      1.00000
     14      -6.2165      1.00000
     15      -5.6309      1.00000
     16      -5.6309      1.00000
     17      -5.4026      1.00000
     18      -5.4026      1.00000
     19      -4.0133      1.00000
     20      -4.0133      1.00000
     21      -1.2045      1.00000
     22      -1.2045      1.00000
     23      -0.6873      1.00000
     24      -0.6873      1.00000
     25      -0.2083      1.00000
     26      -0.2083      1.00000
     27       0.0188      1.00000
     28       0.0188      1.00000
     29       0.0289      1.00000
     30       0.0289      1.00000
     31       0.7405      1.00000
     32       0.7405      1.00000
     33       0.9209      1.00000
     34       0.9209      1.00000
     35       0.9697      1.00000
     36       0.9697      1.00000
     37       1.5494      1.00000
     38       1.5494      1.00000
     39       1.7254      1.00000
     40       1.7254      1.00000
     41       2.1145      1.00000
     42       2.1145      1.00000
     43       2.1571      1.00000
     44       2.1571      1.00000
     45       2.4749      1.00000
     46       2.4749      1.00000
     47       2.5347      1.00000
     48       2.5347      1.00000
     49       2.7291      1.00000
     50       2.7291      1.00000
     51       3.1638      1.00000
     52       3.1638      1.00000
     53       3.5944      1.00000
     54       3.5944      1.00000
     55       3.8053      1.00000
     56       3.8053      1.00000
     57       5.2178      0.00000
     58       5.2178      0.00000
     59       5.5966      0.00000
     60       5.5966      0.00000
     61       6.0165      0.00000
     62       6.0165      0.00000
     63       6.4989      0.00000
     64       6.4989      0.00000
     65       6.5619      0.00000
     66       6.5619      0.00000
     67       6.8208      0.00000
     68       6.8208      0.00000
     69       7.1664      0.00000
     70       7.1664      0.00000
     71       7.2219      0.00000
     72       7.2219      0.00000
     73       7.4102      0.00000
     74       7.4102      0.00000
     75       7.9977      0.00000
     76       7.9977      0.00000
     77       8.4857      0.00000
     78       8.4857      0.00000
     79       8.9415      0.00000
     80       8.9415      0.00000
     81       9.1094      0.00000
     82       9.1094      0.00000
     83      10.5240      0.00000
     84      10.5240      0.00000
 Fermi energy:         3.8881443965

 spin component 2

 k-point     1 :       0.0000    0.0000    0.0000
  band No.  band energies     occupation 
      1     -11.6699      1.00000
      2     -11.4517      1.00000
      3     -11.0370      1.00000
      4     -10.9245      1.00000
      5     -10.7639      1.00000
      6     -10.6102      1.00000
      7      -9.9967      1.00000
      8      -9.8629      1.00000
      9      -9.7587      1.00000
     10      -9.6035      1.00000
     11      -9.5759      1.00000
     12      -9.5471      1.00000
     13      -6.2470      1.00000
     14      -6.0424      1.00000
     15      -5.9375      1.00000
     16      -5.4762      1.00000
     17      -5.3950      1.00000
     18      -5.3436      1.00000
     19      -4.2303      1.00000
     20      -3.8909      1.00000
     21      -1.2999      1.00000
     22      -1.2176      1.00000
     23      -0.6975      1.00000
     24      -0.5740      1.00000
     25      -0.2984      1.00000
     26      -0.1519      1.00000
     27      -0.0991      1.00000
     28       0.0704      1.00000
     29       0.1920      1.00000
     30       0.4289      1.00000
     31       0.6218      1.00000
     32       0.7928      1.00000
     33       0.8045      1.00000
     34       0.9096      1.00000
     35       1.1043      1.00000
     36       1.2223      1.00000
     37       1.2632      1.00000
     38       1.2926      1.00000
     39       1.5385      1.00000
     40       1.5444      1.00000
     41       1.8275      1.00000
     42       2.2151      1.00000
     43       2.2170      1.00000
     44       2.3786      1.00000
     45       2.5016      1.00000
     46       2.6019      1.00000
     47       2.6457      1.00000
     48       2.6947      1.00000
[...]
     13      -6.2166      1.00000
     14      -6.2166      1.00000
     15      -5.6310      1.00000
     16      -5.6310      1.00000
     17      -5.4028      1.00000
     18      -5.4028      1.00000
     19      -4.0135      1.00000
     20      -4.0135      1.00000
     21      -1.2046      1.00000
     22      -1.2046      1.00000
     23      -0.6874      1.00000
     24      -0.6874      1.00000
     25      -0.2084      1.00000
     26      -0.2084      1.00000
     27       0.0187      1.00000
     28       0.0187      1.00000
     29       0.0288      1.00000
     30       0.0288      1.00000
     31       0.7404      1.00000
     32       0.7404      1.00000
     33       0.9208      1.00000
     34       0.9208      1.00000
     35       0.9696      1.00000
     36       0.9696      1.00000
     37       1.5493      1.00000
     38       1.5493      1.00000
     39       1.7253      1.00000
     40       1.7253      1.00000
     41       2.1143      1.00000
     42       2.1143      1.00000
     43       2.1569      1.00000
     44       2.1569      1.00000
     45       2.4748      1.00000
     46       2.4748      1.00000
     47       2.5346      1.00000
     48       2.5346      1.00000
     49       2.7290      1.00000
     50       2.7290      1.00000
     51       3.1636      1.00000
     52       3.1636      1.00000
     53       3.5943      1.00000
     54       3.5943      1.00000
     55       3.8052      1.00000
     56       3.8052      1.00000
     57       5.2177      0.00000
     58       5.2177      0.00000
     59       5.5965      0.00000
     60       5.5965      0.00000
     61       6.0163      0.00000
     62       6.0163      0.00000
     63       6.4987      0.00000
     64       6.4987      0.00000
     65       6.5618      0.00000
     66       6.5618      0.00000
     67       6.8207      0.00000
     68       6.8207      0.00000
     69       7.1663      0.00000
     70       7.1663      0.00000
     71       7.2218      0.00000
     72       7.2218      0.00000
     73       7.4101      0.00000
     74       7.4101      0.00000
     75       7.9976      0.00000
     76       7.9976      0.00000
     77       8.4855      0.00000
     78       8.4855      0.00000
     79       8.9414      0.00000
     80       8.9414      0.00000
     81       9.1092      0.00000
     82       9.1092      0.00000
     83      10.5238      0.00000
     84      10.5238      0.00000


--------------------------------------------------------------------------------------------------------


 soft charge-density along one line, spin component           1
         0         1         2         3         4         5         6         7         8         9
 total charge-density along one line
 
 soft charge-density along one line, spin component           2
         0         1         2         3         4         5         6         7         8         9
 total charge-density along one line
 
 pseudopotential strength for first ion, spin component:           1
 38.928 -66.039   0.037  -0.052  -0.000   0.060  -0.083  -0.000
-66.039 114.336  -0.061   0.084   0.000  -0.098   0.135   0.000
  0.037  -0.061   8.910   0.006  -0.000  14.220   0.010  -0.000
 -0.052   0.084   0.006   8.905  -0.000   0.010  14.212  -0.000
 -0.000   0.000  -0.000  -0.000   8.916  -0.000  -0.000  14.230
  0.060  -0.098  14.220   0.010  -0.000  22.694   0.016  -0.000
 -0.083   0.135   0.010  14.212  -0.000   0.016  22.681  -0.000
 -0.000   0.000  -0.000  -0.000  14.230  -0.000  -0.000  22.709
 -0.000   0.000   0.000   0.000   0.002   0.000   0.000   0.003
  0.011  -0.017  -0.006   0.003   0.000  -0.010   0.005   0.000
 -0.009   0.013  -0.004  -0.004  -0.000  -0.006  -0.008  -0.000
  0.000   0.000   0.000   0.000  -0.009   0.000   0.000  -0.015
  0.006  -0.009  -0.008  -0.001   0.000  -0.013  -0.002   0.000
 pseudopotential strength for first ion, spin component:           2
 38.928 -66.039   0.037  -0.052  -0.000   0.060  -0.083  -0.000
-66.039 114.336  -0.061   0.084   0.000  -0.098   0.135   0.000
  0.037  -0.061   8.910   0.006  -0.000  14.220   0.010  -0.000
 -0.052   0.084   0.006   8.905  -0.000   0.010  14.212  -0.000
 -0.000   0.000  -0.000  -0.000   8.916  -0.000  -0.000  14.230
  0.060  -0.098  14.220   0.010  -0.000  22.694   0.016  -0.000
 -0.083   0.135   0.010  14.212  -0.000   0.016  22.681  -0.000
 -0.000   0.000  -0.000  -0.000  14.230  -0.000  -0.000  22.709
 -0.000  -0.000   0.000   0.000   0.002   0.000   0.000   0.003
  0.011  -0.017  -0.006   0.003   0.000  -0.010   0.005   0.000
 -0.009   0.013  -0.004  -0.004  -0.000  -0.006  -0.008  -0.000
 -0.000   0.000   0.000   0.000  -0.009   0.000   0.000  -0.015
  0.006  -0.009  -0.008  -0.001   0.000  -0.013  -0.002   0.000
 total augmentation occupancy for first ion, spin component:           1
  2.291   0.074  -0.323   0.410   0.000   0.135  -0.176  -0.000  -0.000  -0.013   0.019  -0.000  -0.015
  0.074   0.015   0.111  -0.147   0.000  -0.053   0.070  -0.000  -0.000   0.000  -0.003   0.000   0.007
 -0.323   0.111  11.954  -1.645  -0.000  -5.726   0.777   0.000  -0.000  -0.153   0.012   0.000   0.014
  0.410  -0.147  -1.645  14.103   0.000   0.774  -6.800  -0.000   0.000   0.230  -0.314  -0.000   0.061
  0.000   0.000  -0.000   0.000  10.477   0.000  -0.000  -4.902   0.251  -0.000   0.000   0.016  -0.000
  0.135  -0.053  -5.726   0.774   0.000   2.752  -0.366  -0.000   0.000   0.074  -0.007   0.000  -0.005
 -0.176   0.070   0.777  -6.800  -0.000  -0.366   3.287   0.000  -0.000  -0.112   0.153   0.000  -0.031
 -0.000  -0.000   0.000  -0.000  -4.902  -0.000   0.000   2.295  -0.117   0.000  -0.000  -0.005   0.000
 -0.000  -0.000  -0.000   0.000   0.251   0.000  -0.000  -0.117   0.041   0.000   0.000   0.017  -0.000
 -0.013   0.000  -0.153   0.230  -0.000   0.074  -0.112   0.000   0.000   0.021  -0.015  -0.000   0.011
  0.019  -0.003   0.012  -0.314   0.000  -0.007   0.153  -0.000   0.000  -0.015   0.034   0.000  -0.011
 -0.000   0.000   0.000  -0.000   0.016   0.000   0.000  -0.005   0.017  -0.000   0.000   0.016   0.000
 -0.015   0.007   0.014   0.061  -0.000  -0.005  -0.031   0.000  -0.000   0.011  -0.011   0.000   0.014
 total augmentation occupancy for first ion, spin component:           2
  0.000   0.000  -0.000   0.000   0.000   0.000  -0.000  -0.000  -0.000   0.000  -0.000   0.000   0.000
  0.000   0.000  -0.000   0.000   0.000   0.000  -0.000  -0.000  -0.000   0.000  -0.000   0.000  -0.000
 -0.000  -0.000   0.000  -0.000  -0.000  -0.000   0.000   0.000  -0.000  -0.000   0.000  -0.000   0.000
  0.000   0.000  -0.000   0.000   0.000   0.000  -0.000  -0.000  -0.000  -0.000   0.000  -0.000  -0.000
  0.000   0.000  -0.000   0.000   0.000   0.000  -0.000  -0.000  -0.000   0.000  -0.000  -0.000   0.000
  0.000   0.000  -0.000   0.000   0.000   0.000  -0.000  -0.000   0.000   0.000  -0.000   0.000  -0.000
 -0.000  -0.000   0.000  -0.000  -0.000  -0.000   0.000   0.000   0.000   0.000  -0.000   0.000   0.000
 -0.000  -0.000   0.000  -0.000  -0.000  -0.000   0.000   0.000  -0.000  -0.000   0.000   0.000  -0.000
 -0.000  -0.000  -0.000  -0.000  -0.000   0.000   0.000  -0.000  -0.000   0.000   0.000  -0.000  -0.000
  0.000   0.000  -0.000  -0.000   0.000   0.000   0.000  -0.000   0.000  -0.000   0.000  -0.000  -0.000
 -0.000  -0.000   0.000   0.000  -0.000  -0.000  -0.000   0.000   0.000   0.000  -0.000   0.000   0.000
  0.000   0.000  -0.000  -0.000  -0.000   0.000   0.000   0.000  -0.000  -0.000   0.000  -0.000  -0.000
  0.000  -0.000   0.000  -0.000   0.000  -0.000   0.000  -0.000  -0.000  -0.000   0.000  -0.000  -0.000


------------------------ aborting loop because EDIFF is reached ----------------------------------------





 total charge

# of ion       s       p       d       tot
------------------------------------------
    1        1.330   1.020   0.072   2.422
    2        1.330   1.020   0.072   2.422
    3        1.330   1.020   0.072   2.422
    4        1.330   1.020   0.072   2.422
    5        1.306   1.050   0.069   2.425
    6        1.306   1.050   0.069   2.425
    7        1.306   1.050   0.069   2.425
    8        1.306   1.050   0.069   2.425
    9        1.488   2.424   0.024   3.936
   10        1.488   2.424   0.024   3.936
   11        1.488   2.424   0.024   3.936
   12        1.488   2.424   0.024   3.936
   13        1.488   2.394   0.028   3.911
   14        1.488   2.394   0.028   3.911
   15        1.488   2.394   0.028   3.911
   16        1.488   2.394   0.028   3.911
   17        1.478   2.417   0.025   3.920
   18        1.478   2.417   0.025   3.920
   19        1.478   2.417   0.025   3.920
   20        1.478   2.417   0.025   3.920
--------------------------------------------------
tot         28.361  37.219   0.874  66.454



 magnetization (x)

# of ion       s       p       d       tot
------------------------------------------
    1        0.000   0.000   0.000   0.000
    2        0.000   0.000   0.000   0.000
    3        0.000   0.000   0.000   0.000
    4        0.000   0.000   0.000   0.000
    5        0.000   0.000   0.000   0.000
    6        0.000   0.000   0.000   0.000
    7        0.000   0.000   0.000   0.000
    8        0.000   0.000   0.000   0.000
    9        0.000   0.000   0.000   0.000
   10        0.000   0.000   0.000   0.000
   11        0.000   0.000   0.000   0.000
   12        0.000   0.000   0.000   0.000
   13        0.000   0.000  -0.000   0.000
   14        0.000   0.000  -0.000   0.000
   15        0.000   0.000  -0.000   0.000
   16        0.000   0.000  -0.000   0.000
   17        0.000   0.000  -0.000   0.000
   18        0.000   0.000  -0.000   0.000
   19        0.000   0.000  -0.000   0.000
   20        0.000   0.000  -0.000   0.000
--------------------------------------------------
tot          0.000   0.000   0.000   0.000
 
    CHARGE:  cpu time      0.0280: real time      0.0281
    FORLOC:  cpu time      0.0028: real time      0.0028
    FORHF :  cpu time     16.7625: real time     16.8053
    FORNL :  cpu time      0.1711: real time      0.1715
    FORCOR:  cpu time      1.0915: real time      1.0941
    FORHAR:  cpu time      0.0122: real time      0.0125
    MIXING:  cpu time      0.0005: real time      0.0005
    OFIELD:  cpu time      0.0006: real time      0.0010

 VOLUME and BASIS-vectors are now :
 -----------------------------------------------------------------------------
  energy-cutoff  :      680.00
  volume of cell :      579.44
      direct lattice vectors                 reciprocal lattice vectors
     4.001556870  0.000000000  0.000000000     0.249902733  0.000000000  0.000000000
    -0.000000000 11.713629710  0.000000000     0.000000000  0.085370634  0.000000000
     0.000000000  0.000000000 12.362073200    -0.000000000 -0.000000000  0.080892580

  length of vectors
     4.001556870 11.713629710 12.362073200     0.249902733  0.085370634  0.080892580


 FORCES acting on ions
    electron-ion (+dipol)            ewald-force                    non-local-force                 convergence-correction
 -----------------------------------------------------------------------------------------------
   -.126E-06 0.164E+02 -.375E+02   0.112E-13 -.215E+02 0.447E+02   -.309E-15 0.517E+01 -.713E+01   -.448E-06 0.205E-03 0.555E-03
   0.188E-06 -.164E+02 0.375E+02   -.774E-14 0.215E+02 -.447E+02   0.309E-15 -.517E+01 0.713E+01   0.215E-06 -.204E-03 -.556E-03
   0.790E-07 0.164E+02 0.375E+02   -.537E-14 -.215E+02 -.447E+02   -.309E-15 0.517E+01 0.713E+01   0.250E-07 0.204E-03 -.555E-03
   -.110E-06 -.164E+02 -.375E+02   0.198E-14 0.215E+02 0.447E+02   0.309E-15 -.517E+01 -.713E+01   -.136E-06 -.204E-03 0.556E-03
   0.996E-07 -.120E+02 0.334E+02   -.532E-14 0.994E+01 -.424E+02   -.122E-15 0.203E+01 0.909E+01   0.529E-07 0.632E-03 -.826E-03
   -.167E-06 0.120E+02 -.334E+02   0.793E-14 -.994E+01 0.424E+02   0.122E-15 -.203E+01 -.909E+01   -.156E-06 -.632E-03 0.825E-03
   -.337E-07 -.120E+02 -.334E+02   0.751E-14 0.994E+01 0.424E+02   -.122E-15 0.203E+01 -.909E+01   -.537E-07 0.633E-03 0.827E-03
   0.103E-06 0.120E+02 0.334E+02   -.149E-13 -.994E+01 -.424E+02   0.122E-15 -.203E+01 0.909E+01   0.154E-06 -.632E-03 -.826E-03
   -.304E-07 -.452E+02 0.474E+02   -.128E-13 0.459E+02 -.493E+02   0.670E-16 -.112E+01 0.174E+01   -.981E-08 0.922E-03 -.772E-04
   0.553E-06 0.452E+02 -.474E+02   0.156E-13 -.459E+02 0.493E+02   -.670E-16 0.112E+01 -.174E+01   -.526E-06 -.920E-03 0.748E-04
   -.190E-06 -.452E+02 -.474E+02   -.593E-14 0.459E+02 0.493E+02   0.670E-16 -.112E+01 -.174E+01   0.217E-06 0.920E-03 0.772E-04
   0.108E-06 0.452E+02 0.474E+02   0.152E-13 -.459E+02 -.493E+02   -.670E-16 0.112E+01 0.174E+01   -.130E-06 -.920E-03 -.765E-04
   -.319E-06 -.171E+02 -.624E+02   -.773E-14 0.164E+02 0.636E+02   -.213E-16 0.356E+00 -.151E+01   0.366E-06 -.250E-03 0.613E-03
   0.715E-07 0.171E+02 0.624E+02   0.928E-14 -.164E+02 -.636E+02   0.213E-16 -.356E+00 0.151E+01   -.116E-06 0.250E-03 -.614E-03
   -.354E-06 -.171E+02 0.624E+02   0.579E-14 0.164E+02 -.636E+02   -.213E-16 0.356E+00 0.151E+01   0.359E-06 -.253E-03 -.611E-03
   0.453E-06 0.171E+02 -.624E+02   -.304E-15 -.164E+02 0.636E+02   0.213E-16 -.356E+00 -.151E+01   -.442E-06 0.252E-03 0.612E-03
   -.148E-06 0.302E+02 -.164E+02   0.613E-14 -.298E+02 0.172E+02   0.168E-16 -.281E+00 -.612E+00   0.139E-06 -.532E-03 -.114E-02
   0.984E-07 -.302E+02 0.164E+02   -.138E-13 0.298E+02 -.172E+02   -.168E-16 0.281E+00 0.612E+00   -.971E-07 0.532E-03 0.114E-02
   -.736E-08 0.302E+02 0.164E+02   -.975E-14 -.298E+02 -.172E+02   0.168E-16 -.281E+00 0.612E+00   0.508E-07 -.532E-03 0.114E-02
   -.161E-06 -.302E+02 -.164E+02   0.432E-14 0.298E+02 0.172E+02   -.168E-16 0.281E+00 -.612E+00   0.142E-06 0.531E-03 -.114E-02
 -----------------------------------------------------------------------------------------------
   0.107E-06 -.129E-05 0.115E-05   0.129E-14 0.355E-13 0.355E-13   0.124E-22 -.278E-15 0.111E-15   -.393E-06 0.905E-06 -.105E-05
 
 
 POSITION                                       TOTAL-FORCE (eV/Angst)
 -----------------------------------------------------------------------------------
      3.00117      0.44623      1.73468        -0.000000      0.430269     -0.339622
      1.00039     11.26740     10.62740         0.000000     -0.430269      0.339622
      1.00039      6.30304      4.44636        -0.000000      0.430269      0.339622
      3.00117      5.41059      7.91571         0.000000     -0.430269     -0.339622
      1.00039      3.86071      0.41800        -0.000000      0.165122      0.544192
      3.00117      7.85292     11.94408         0.000000     -0.165122     -0.544192
      3.00117      9.71753      5.76304        -0.000000      0.165122     -0.544192
      1.00039      1.99610      6.59903         0.000000     -0.165122      0.544192
      3.00117      1.49378     11.72351         0.000000     -0.615601      0.125460
      1.00039     10.21984      0.63856        -0.000000      0.615601     -0.125460
      1.00039      7.35060      6.81960         0.000000     -0.615601     -0.125460
      3.00117      4.36303      5.54248        -0.000000      0.615601      0.125460
      1.00039      2.25020      2.53832         0.000000     -0.300777     -0.595846
      3.00117      9.46343      9.82375        -0.000000      0.300777      0.595846
      3.00117      8.10701      3.64272         0.000000     -0.300777      0.595846
      1.00039      3.60662      8.71936        -0.000000      0.300777     -0.595846
      3.00117      0.63369      7.75534        -0.000000      0.149307     -0.031668
      1.00039     11.07994      4.60674         0.000000     -0.149307      0.031668
      1.00039      6.49051     10.78777        -0.000000      0.149307      0.031668
      3.00117      5.22312      1.57430         0.000000     -0.149307     -0.031668
 -----------------------------------------------------------------------------------
    total drift:                               -0.000000     -0.000000      0.000000


--------------------------------------------------------------------------------------------------------



  FREE ENERGIE OF THE ION-ELECTRON SYSTEM (eV)
  ---------------------------------------------------
  free  energy   TOTEN  =       -73.45821836 eV

  energy  without entropy=      -73.45821836  energy(sigma->0) =      -73.45821836
 


--------------------------------------------------------------------------------------------------------


    POTLOK:  cpu time      1.0982: real time      1.1010


--------------------------------------------------------------------------------------------------------


 writing wavefunctions
     LOOP+:  cpu time    450.3798: real time    453.4205
    4ORBIT:  cpu time      0.0000: real time      0.0000



 total charge

# of ion       s       p       d       tot
------------------------------------------
    1        1.330   1.020   0.072   2.422
    2        1.330   1.020   0.072   2.422
    3        1.330   1.020   0.072   2.422
    4        1.330   1.020   0.072   2.422
    5        1.306   1.050   0.069   2.425
    6        1.306   1.050   0.069   2.425
    7        1.306   1.050   0.069   2.425
    8        1.306   1.050   0.069   2.425
    9        1.488   2.424   0.024   3.936
   10        1.488   2.424   0.024   3.936
   11        1.488   2.424   0.024   3.936
   12        1.488   2.424   0.024   3.936
   13        1.488   2.394   0.028   3.911
   14        1.488   2.394   0.028   3.911
   15        1.488   2.394   0.028   3.911
   16        1.488   2.394   0.028   3.911
   17        1.478   2.417   0.025   3.920
   18        1.478   2.417   0.025   3.920
   19        1.478   2.417   0.025   3.920
   20        1.478   2.417   0.025   3.920
--------------------------------------------------
tot         28.361  37.219   0.874  66.454



 magnetization (x)

# of ion       s       p       d       tot
------------------------------------------
    1        0.000   0.000   0.000   0.000
    2        0.000   0.000   0.000   0.000
    3        0.000   0.000   0.000   0.000
    4        0.000   0.000   0.000   0.000
    5        0.000   0.000   0.000   0.000
    6        0.000   0.000   0.000   0.000
    7        0.000   0.000   0.000   0.000
    8        0.000   0.000   0.000   0.000
    9        0.000   0.000   0.000   0.000
   10        0.000   0.000   0.000   0.000
   11        0.000   0.000   0.000   0.000
   12        0.000   0.000   0.000   0.000
   13        0.000   0.000  -0.000   0.000
   14        0.000   0.000  -0.000   0.000
   15        0.000   0.000  -0.000   0.000
   16        0.000   0.000  -0.000   0.000
   17        0.000   0.000  -0.000   0.000
   18        0.000   0.000  -0.000   0.000
   19        0.000   0.000  -0.000   0.000
   20        0.000   0.000  -0.000   0.000
--------------------------------------------------
tot          0.000   0.000   0.000   0.000
 

 total amount of memory used by VASP MPI-rank0   154889. kBytes
=======================================================================

   base      :      30000. kBytes
   nonl-proj :       2220. kBytes
   fftplans  :       4006. kBytes
   grid      :       6950. kBytes
   one-center:         32. kBytes
   HF        :         67. kBytes
   nonlr-proj:      16646. kBytes
   wavefun   :       1604. kBytes
   fock_wrk  :      93364. kBytes
 
  
  
 General timing and accounting informations for this job:
 ========================================================
  
                  Total CPU time used (sec):      481.944
                            User time (sec):      428.090
                          System time (sec):       53.854
                         Elapsed time (sec):      486.685
  
                   Maximum memory used (kb):      503364.
                   Average memory used (kb):          N/A
  
                          Minor page faults:       413998
                          Major page faults:            0
                 Voluntary context switches:         5275
