<?xml version="1.0" encoding="ISO-8859-1"?>
<modeling>
 <generator>
  <i name="program" type="string">vasp </i>
  <i name="version" type="string">6.4.2  </i>
  <i name="subversion" type="string">20Jul23 (build Mar 15 2024 16:31:38) complex                          parallel </i>
  <i name="platform" type="string">LinuxIFC </i>
  <i name="date" type="string">2025 03 27 </i>
  <i name="time" type="string">12:12:25 </i>
 </generator>
 <incar>
  <i type="string" name="PREC">Accurate</i>
  <i type="string" name="ALGO">Normal</i>
  <i type="int" name="ISPIN">     2</i>
  <i type="int" name="NELM">   200</i>
  <i name="EDIFF">      0.00001000</i>
  <i type="int" name="NSW">     0</i>
  <i name="ENCUT">    680.00000000</i>
  <i name="ENAUG">   1360.00000000</i>
  <v name="MAGMOM">      0.60000000      0.60000000      0.60000000      0.60000000      0.60000000      0.60000000      0.60000000      0.60000000      0.60000000      0.60000000      0.60000000      0.60000000      0.60000000      0.60000000      0.60000000      0.60000000      0.60000000      0.60000000      0.60000000      0.60000000
</v>
  <i type="logical" name="LREAL"> F  </i>
  <i type="int" name="ISMEAR">     0</i>
  <i name="SIGMA">      0.01000000</i>
  <i type="int" name="LMAXMIX">     4</i>
  <i type="logical" name="LWAVE"> T  </i>
  <i type="logical" name="LCHARG"> T  </i>
  <i type="logical" name="LVTOT"> T  </i>
  <i type="int" name="LORBIT">    11</i>
  <i type="logical" name="LELF"> F  </i>
  <i type="logical" name="LASPH"> T  </i>
  <i type="logical" name="LAECHG"> T  </i>
  <i name="HFSCREEN">      0.20000000</i>
  <i type="logical" name="LHFCALC"> T  </i>
  <i type="string" name="GGA">Pe</i>
  <i type="string" name="PRECFOCK">Accurate</i>
  <i type="logical" name="LDAU"> F  </i>
  <i type="logical" name="LMIXTAU"> T  </i>
 </incar>
 <primitive_cell>
  <structure name="primitive_cell" >
   <crystal>
    <varray name="basis" >
     <v>       4.00155687       0.00000000       0.00000000 </v>
     <v>      -0.00000000      11.71362971       0.00000000 </v>
     <v>       0.00000000       0.00000000      12.36207320 </v>
    </varray>
    <i name="volume">    579.44443382 </i>
    <varray name="rec_basis" >
     <v>       0.24990273       0.00000000       0.00000000 </v>
     <v>       0.00000000       0.08537063       0.00000000 </v>
     <v>      -0.00000000      -0.00000000       0.08089258 </v>
    </varray>
   </crystal>
   <varray name="positions" >
    <v>       0.75000000       0.03809460       0.14032237 </v>
    <v>       0.25000000       0.96190540       0.85967763 </v>
    <v>       0.25000000       0.53809460       0.35967763 </v>
    <v>       0.75000000       0.46190540       0.64032237 </v>
    <v>       0.25000000       0.32959138       0.03381284 </v>
    <v>       0.75000000       0.67040862       0.96618716 </v>
    <v>       0.75000000       0.82959138       0.46618716 </v>
    <v>       0.25000000       0.17040862       0.53381284 </v>
    <v>       0.75000000       0.12752536       0.94834520 </v>
    <v>       0.25000000       0.87247464       0.05165480 </v>
    <v>       0.25000000       0.62752536       0.55165480 </v>
    <v>       0.75000000       0.37247464       0.44834520 </v>
    <v>       0.25000000       0.19210067       0.20533132 </v>
    <v>       0.75000000       0.80789933       0.79466868 </v>
    <v>       0.75000000       0.69210067       0.29466868 </v>
    <v>       0.25000000       0.30789933       0.70533132 </v>
    <v>       0.75000000       0.05409869       0.62734915 </v>
    <v>       0.25000000       0.94590131       0.37265085 </v>
    <v>       0.25000000       0.55409869       0.87265085 </v>
    <v>       0.75000000       0.44590131       0.12734915 </v>
   </varray>
  </structure>
  <varray name="primitive_index" >
   <v type="int" >        1 </v>
   <v type="int" >        2 </v>
   <v type="int" >        3 </v>
   <v type="int" >        4 </v>
   <v type="int" >        5 </v>
   <v type="int" >        6 </v>
   <v type="int" >        7 </v>
   <v type="int" >        8 </v>
   <v type="int" >        9 </v>
   <v type="int" >       10 </v>
   <v type="int" >       11 </v>
   <v type="int" >       12 </v>
   <v type="int" >       13 </v>
   <v type="int" >       14 </v>
   <v type="int" >       15 </v>
   <v type="int" >       16 </v>
   <v type="int" >       17 </v>
   <v type="int" >       18 </v>
   <v type="int" >       19 </v>
   <v type="int" >       20 </v>
  </varray>
 </primitive_cell>
 <kpoints>
  <varray name="kpointlist" >
   <v>       0.00000000       0.00000000       0.00000000 </v>
   <v>       0.00000000       0.50000000       0.00000000 </v>
   <v>       0.00000000       0.00000000       0.50000000 </v>
  </varray>
  <varray name="weights" >
   <v>       0.33333333 </v>
   <v>       0.33333333 </v>
   <v>       0.33333333 </v>
  </varray>
 </kpoints>
 <parameters>
  <separator name="general" >
   <i type="string" name="SYSTEM">unknown system</i>
   <i type="logical" name="LCOMPAT"> F  </i>
  </separator>
  <separator name="electronic" >
   <i type="string" name="PREC">accura</i>
   <i name="ENMAX">    680.00000000</i>
   <i name="ENAUG">   1360.00000000</i>
   <i name="EDIFF">      0.00001000</i>
   <i type="int" name="IALGO">    38</i>
   <i type="int" name="IWAVPR">    10</i>
   <i type="int" name="NBANDS">    84</i>
   <i type="int" name="NBANDSLOW">    -1</i>
   <i type="int" name="NBANDSHIGH">    -1</i>
   <i name="NELECT">    112.00000000</i>
   <i type="int" name="TURBO">     0</i>
   <i type="int" name="IRESTART">     0</i>
   <i type="int" name="NREBOOT">     0</i>
   <i type="int" name="NMIN">     0</i>
   <i name="EREF">      0.00000000</i>
   <separator name="electronic smearing" >
    <i type="int" name="ISMEAR">     0</i>
    <i name="SIGMA">      0.01000000</i>
    <i name="KSPACING">      0.50000000</i>
    <i type="logical" name="KGAMMA"> T  </i>
    <i type="logical" name="KBLOWUP"> T  </i>
   </separator>
   <separator name="electronic projectors" >
    <i type="logical" name="LREAL"> F  </i>
    <v name="ROPT">      0.00000000      0.00000000</v>
    <i type="int" name="LMAXPAW">  -100</i>
    <i type="int" name="LMAXMIX">     4</i>
    <i type="logical" name="NLSPLINE"> F  </i>
   </separator>
   <separator name="electronic startup" >
    <i type="int" name="ISTART">     0</i>
    <i type="int" name="ICHARG">     2</i>
    <i type="int" name="INIWAV">     1</i>
   </separator>
   <separator name="electronic spin" >
    <i type="int" name="ISPIN">     2</i>
    <i type="logical" name="LNONCOLLINEAR"> F  </i>
    <v name="MAGMOM">      0.60000000      0.60000000      0.60000000      0.60000000      0.60000000      0.60000000      0.60000000      0.60000000      0.60000000      0.60000000      0.60000000      0.60000000      0.60000000      0.60000000      0.60000000      0.60000000      0.60000000      0.60000000      0.60000000      0.60000000
</v>
    <i name="NUPDOWN">     -1.00000000</i>
    <i type="logical" name="LSORBIT"> F  </i>
    <v name="SAXIS">      0.00000000      0.00000000      1.00000000</v>
    <i type="logical" name="LSPIRAL"> F  </i>
    <v name="QSPIRAL">      0.00000000      0.00000000      0.00000000</v>
    <i type="logical" name="LZEROZ"> F  </i>
   </separator>
   <separator name="electronic exchange-correlation" >
    <i type="logical" name="LASPH"> T  </i>
    <i type="logical" name="LMETAGGA"> F  </i>
   </separator>
   <separator name="electronic convergence" >
    <i type="int" name="NELM">   200</i>
    <i type="int" name="NELMDL">     0</i>
    <i type="int" name="NELMIN">     2</i>
    <i name="ENINI">    680.00000000</i>
    <separator name="electronic convergence detail" >
     <i type="logical" name="LDIAG"> T  </i>
     <i type="logical" name="LSUBROT"> F  </i>
     <i name="WEIMIN">      0.00000000</i>
     <i name="EBREAK">      0.00000003</i>
     <i name="DEPER">      0.30000000</i>
     <i type="int" name="NRMM">     4</i>
     <i name="TIME">      0.40000000</i>
    </separator>
   </separator>
   <separator name="electronic mixer" >
    <i name="AMIX">      0.40000000</i>
    <i name="BMIX">      1.00000000</i>
    <i name="AMIN">      0.10000000</i>
    <i name="AMIX_MAG">      1.60000000</i>
    <i name="BMIX_MAG">      1.00000000</i>
    <separator name="electronic mixer details" >
     <i type="int" name="IMIX">     1</i>
     <i type="logical" name="MIXFIRST"> F  </i>
     <i type="int" name="MAXMIX">   -45</i>
     <i name="WC">    100.00000000</i>
     <i type="int" name="INIMIX">     1</i>
     <i type="int" name="MIXPRE">     1</i>
     <i type="int" name="MREMOVE">     5</i>
    </separator>
   </separator>
   <separator name="electronic dipolcorrection" >
    <i type="logical" name="LDIPOL"> F  </i>
    <i type="logical" name="LMONO"> F  </i>
    <i type="int" name="IDIPOL">     0</i>
    <i name="EPSILON">      1.00000000</i>
    <v name="DIPOL">   -100.00000000   -100.00000000   -100.00000000</v>
    <i name="EFIELD">      0.00000000</i>
   </separator>
  </separator>
  <separator name="grids" >
   <i type="int" name="NGX">    36</i>
   <i type="int" name="NGY">   100</i>
   <i type="int" name="NGZ">   108</i>
   <i type="int" name="NGXF">    72</i>
   <i type="int" name="NGYF">   200</i>
   <i type="int" name="NGZF">   216</i>
   <i type="logical" name="ADDGRID"> F  </i>
  </separator>
  <separator name="ionic" >
   <i type="int" name="NSW">     0</i>
   <i type="int" name="IBRION">    -1</i>
   <i type="int" name="MDALGO">     0</i>
   <i type="int" name="ISIF">     0</i>
   <i name="PSTRESS">      0.00000000</i>
   <i name="EDIFFG">      0.00010000</i>
   <i type="int" name="NFREE">     0</i>
   <i name="POTIM">      0.50000000</i>
   <i name="SMASS">     -3.00000000</i>
   <i name="SCALEE">      1.00000000</i>
  </separator>
  <separator name="ionic md" >
   <i name="TEBEG">      0.00010000</i>
   <i name="TEEND">      0.00010000</i>
   <i type="int" name="NBLOCK">     1</i>
   <i type="int" name="KBLOCK">     1</i>
   <i type="int" name="NPACO">   256</i>
   <i name="APACO">     10.00000000</i>
  </separator>
  <separator name="symmetry" >
   <i type="int" name="ISYM">     3</i>
   <i name="SYMPREC">      0.00001000</i>
  </separator>
  <separator name="dos" >
   <i type="int" name="LORBIT">    11</i>
   <v name="RWIGS">     -1.00000000     -1.00000000</v>
   <i type="int" name="NEDOS">   301</i>
   <i name="EMIN">     10.00000000</i>
   <i name="EMAX">    -10.00000000</i>
   <i name="EFERMI">      0.00000000</i>
  </separator>
  <separator name="writing" >
   <i type="int" name="NWRITE">     2</i>
   <i type="logical" name="LWAVE"> T  </i>
   <i type="logical" name="LDOWNSAMPLE"> F  </i>
   <i type="logical" name="LCHARG"> T  </i>
   <i type="logical" name="LPARD"> F  </i>
   <i type="logical" name="LVTOT"> T  </i>
   <i type="logical" name="LVHAR"> F  </i>
   <i type="logical" name="LELF"> F  </i>
   <i type="logical" name="LOPTICS"> F  </i>
   <v name="STM">      0.00000000      0.00000000      0.00000000      0.00000000      0.00000000      0.00000000      0.00000000</v>
  </separator>
  <separator name="performance" >
   <i type="int" name="NPAR">    12</i>
   <i type="int" name="NSIM">     4</i>
   <i type="int" name="NBLK">    -1</i>
   <i type="logical" name="LPLANE"> T  </i>
   <i type="logical" name="LSCALAPACK"> T  </i>
   <i type="logical" name="LSCAAWARE"> F  </i>
   <i type="logical" name="LSCALU"> F  </i>
   <i type="logical" name="LASYNC"> F  </i>
   <i type="logical" name="LORBITALREAL"> F  </i>
  </separator>
  <separator name="miscellaneous" >
   <i type="int" name="IDIOT">     3</i>
   <i type="int" name="PHON_NSTRUCT">    -1</i>
   <i type="logical" name="LMUSIC"> F  </i>
   <v name="POMASS">    121.75000000     78.96000000</v>
   <v name="DARWINR">      0.00000000      0.00000000</v>
   <v name="DARWINV">      1.00000000      1.00000000</v>
   <i type="logical" name="LCORR"> T  </i>
  </separator>
  <i type="logical" name="GGA_COMPAT"> T  </i>
  <i type="logical" name="LBERRY"> F  </i>
  <i type="int" name="ICORELEVEL">     0</i>
  <i type="logical" name="LDAU"> F  </i>
  <i type="int" name="I_CONSTRAINED_M">     0</i>
  <separator name="electronic exchange-correlation" >
   <i type="string" name="GGA">PE</i>
   <i type="int" name="VOSKOWN">     0</i>
   <i type="logical" name="LHFCALC"> T  </i>
   <i type="string" name="PRECFOCK">accur.</i>
   <i type="logical" name="LSYMGRAD"> F  </i>
   <i type="logical" name="LHFONE"> F  </i>
   <i type="logical" name="LRHFCALC"> F  </i>
   <i type="logical" name="LTHOMAS"> F  </i>
   <i type="logical" name="LMODELHF"> F  </i>
   <i type="logical" name="LFOCKACE"> T  </i>
   <i name="ENCUT4O">     -1.00000000</i>
   <i type="int" name="EXXOEP">     0</i>
   <i type="int" name="FOURORBIT">     0</i>
   <i name="AEXX">      0.25000000</i>
   <i name="HFALPHA">     -1.00000000</i>
   <i name="MCALPHA">      0.00000000</i>
   <i name="ALDAX">      0.75000000</i>
   <i name="AGGAX">      0.75000000</i>
   <i name="ALDAC">      1.00000000</i>
   <i name="AGGAC">      1.00000000</i>
   <i type="int" name="NKREDX">     1</i>
   <i type="int" name="NKREDY">     1</i>
   <i type="int" name="NKREDZ">     1</i>
   <i type="logical" name="SHIFTRED"> F  </i>
   <i type="logical" name="ODDONLY"> F  </i>
   <i type="logical" name="EVENONLY"> F  </i>
   <i type="int" name="LMAXFOCK">     4</i>
   <i type="int" name="NMAXFOCKAE">     1</i>
   <i type="logical" name="LFOCKAEDFT"> F  </i>
   <i name="HFSCREEN">      0.20000000</i>
   <i name="HFSCREENC">      0.20000000</i>
   <i type="int" name="NBANDSGWLOW">     1</i>
  </separator>
  <separator name="vdW DFT" >
   <i type="logical" name="LUSE_VDW"> F  </i>
   <i type="int" name="IVDW_NL">     1</i>
   <i type="logical" name="LSPIN_VDW"> F  </i>
   <i name="Zab_VDW">     -0.84910000</i>
   <i name="PARAM1">      0.12340000</i>
   <i name="PARAM2">      1.00000000</i>
   <i name="PARAM3">      0.00000000</i>
  </separator>
  <separator name="model GW" >
   <i type="int" name="MODEL_GW">     0</i>
   <i name="MODEL_EPS0">     17.38333301</i>
   <i name="MODEL_ALPHA">      1.00000000</i>
  </separator>
  <separator name="linear response parameters" >
   <i type="logical" name="LEPSILON"> F  </i>
   <i type="logical" name="LRPA"> F  </i>
   <i type="logical" name="LNABLA"> F  </i>
   <i type="logical" name="LVEL"> F  </i>
   <i name="CSHIFT">      0.10000000</i>
   <i name="OMEGAMAX">     -1.00000000</i>
   <i name="DEG_THRESHOLD">      0.00200000</i>
   <i name="RTIME">     -0.10000000</i>
   <i name="WPLASMAI">      0.00000000</i>
   <v name="DFIELD">      0.00000000      0.00000000      0.00000000</v>
   <v name="WPLASMA">      0.00000000      0.00000000      0.00000000      0.00000000      0.00000000      0.00000000      0.00000000      0.00000000      0.00000000</v>
  </separator>
  <separator name="orbital magnetization" >
   <i type="logical" name="NUCIND"> F  </i>
   <v name="MAGPOS">      0.00000000      0.00000000      0.00000000</v>
   <i type="logical" name="LNICSALL"> T  </i>
   <i type="logical" name="ORBITALMAG"> F  </i>
   <i type="logical" name="LMAGBLOCH"> F  </i>
   <i type="logical" name="LCHIMAG"> F  </i>
   <i type="logical" name="LGAUGE"> T  </i>
   <i type="int" name="MAGATOM">     0</i>
   <v name="MAGDIPOL">      0.00000000      0.00000000      0.00000000</v>
   <v name="AVECCONST">      0.00000000      0.00000000      0.00000000</v>
  </separator>
  <separator name="response functions" >
   <i type="logical" name="LALL_IN_ONE"> F  </i>
   <i type="int" name="IALL_IN_ONE">    -1</i>
   <i type="int" name="NBANDS_WAVE">    -1</i>
   <i type="logical" name="LFINITE_TEMPERATURE"> F  </i>
   <i type="logical" name="LADDER"> F  </i>
   <i type="logical" name="LRPAFORCE"> F  </i>
   <i type="logical" name="LFXC"> F  </i>
   <i type="logical" name="LHARTREE"> T  </i>
   <i type="int" name="IBSE">     0</i>
   <v type="int" name="KPOINT">    -1     0     0     0</v>
   <i type="logical" name="LTCTC"> F  </i>
   <i type="logical" name="LTCTE"> F  </i>
   <i type="logical" name="LTETE"> F  </i>
   <i type="logical" name="LTRIPLET"> F  </i>
   <i type="logical" name="LFXCEPS"> F  </i>
   <i type="logical" name="LFXHEG"> F  </i>
   <i type="int" name="NATURALO">     2</i>
   <i type="logical" name="LHOLEGF"> F  </i>
   <i type="logical" name="L2ORDER"> F  </i>
   <i type="logical" name="LDMP1"> F  </i>
   <i type="logical" name="LMP2LT"> F  </i>
   <i type="logical" name="LSMP2LT"> F  </i>
   <i type="logical" name="LGWLF"> F  </i>
   <i name="ENCUTGW">     -1.60000002</i>
   <i name="ENCUTGWSOFT">     -1.60000002</i>
   <i name="ENCUTLF">     -1.00000000</i>
   <i type="logical" name="LESF_SPLINES"> F  </i>
   <i type="int" name="LMAXMP2">    -1</i>
   <i name="SCISSOR">      0.00000000</i>
   <i type="int" name="NOMEGA">     0</i>
   <i type="int" name="NOMEGAR">     0</i>
   <i type="int" name="NBANDSGW">    -1</i>
   <i type="int" name="NBANDSO">    -1</i>
   <i type="int" name="NBANDSV">    -1</i>
   <i type="int" name="NELMGW">     1</i>
   <i type="int" name="NELMHF">     1</i>
   <i type="int" name="DIM">     3</i>
   <i type="int" name="IESPILON">     4</i>
   <i type="int" name="ANTIRES">     0</i>
   <i name="OMEGAMAX">    -30.00000000</i>
   <i name="OMEGAMIN">    -30.00000000</i>
   <i name="OMEGATL">   -200.00000000</i>
   <i type="int" name="OMEGAGRID">     0</i>
   <i name="CSHIFT">     -0.10000000</i>
   <i type="logical" name="LSELFENERGY"> F  </i>
   <i type="logical" name="LSPECTRAL"> F  </i>
   <i type="logical" name="LSPECTRALGW"> F  </i>
   <i type="logical" name="LSINGLES"> F  </i>
   <i type="logical" name="LFERMIGW"> F  </i>
   <i type="logical" name="ODDONLYGW"> F  </i>
   <i type="logical" name="EVENONLYGW"> F  </i>
   <i type="int" name="NKREDLFX">     1</i>
   <i type="int" name="NKREDLFY">     1</i>
   <i type="int" name="NKREDLFZ">     1</i>
   <i type="int" name="MAXMEM">  2800</i>
   <i type="int" name="TELESCOPE">     0</i>
   <i type="int" name="NTAUPAR">    -1</i>
   <i type="int" name="NOMEGAPAR">    -1</i>
   <i name="DAMP_NEWTON">      0.80000001</i>
   <i name="LAMBDA">      1.00000000</i>
  </separator>
  <separator name="External order field" >
   <i name="OFIELD_KAPPA">      0.00000000</i>
   <v name="OFIELD_K">      0.00000000      0.00000000      0.00000000</v>
   <i name="OFIELD_Q6_NEAR">      0.00000000</i>
   <i name="OFIELD_Q6_FAR">      0.00000000</i>
   <i name="OFIELD_A">      0.00000000</i>
  </separator>
  <separator name="optional k-points parameters" >
   <i type="int" name="KPOINTS_OPT_MODE">     1</i>
   <i type="logical" name="LKPOINTS_OPT"> F  </i>
  </separator>
 </parameters>
 <atominfo>
  <atoms>      20 </atoms>
  <types>       2 </types>
  <array name="atoms" >
   <dimension dim="1">ion</dimension>
   <field type="string">element</field>
   <field type="int">atomtype</field>
   <set>
    <rc><c>Sb</c><c>   1</c></rc>
    <rc><c>Sb</c><c>   1</c></rc>
    <rc><c>Sb</c><c>   1</c></rc>
    <rc><c>Sb</c><c>   1</c></rc>
    <rc><c>Sb</c><c>   1</c></rc>
    <rc><c>Sb</c><c>   1</c></rc>
    <rc><c>Sb</c><c>   1</c></rc>
    <rc><c>Sb</c><c>   1</c></rc>
    <rc><c>Se</c><c>   2</c></rc>
    <rc><c>Se</c><c>   2</c></rc>
    <rc><c>Se</c><c>   2</c></rc>
    <rc><c>Se</c><c>   2</c></rc>
    <rc><c>Se</c><c>   2</c></rc>
    <rc><c>Se</c><c>   2</c></rc>
    <rc><c>Se</c><c>   2</c></rc>
    <rc><c>Se</c><c>   2</c></rc>
    <rc><c>Se</c><c>   2</c></rc>
    <rc><c>Se</c><c>   2</c></rc>
    <rc><c>Se</c><c>   2</c></rc>
    <rc><c>Se</c><c>   2</c></rc>
   </set>
  </array>
  <array name="atomtypes" >
   <dimension dim="1">type</dimension>
   <field type="int">atomspertype</field>
   <field type="string">element</field>
   <field>mass</field>
   <field>valence</field>
   <field type="string">pseudopotential</field>
   <set>
    <rc><c>   8</c><c>Sb</c><c>    121.75000000</c><c>      5.00000000</c><c>  PAW_PBE Sb 06Sep2000                  </c></rc>
    <rc><c>  12</c><c>Se</c><c>     78.96000000</c><c>      6.00000000</c><c>  PAW_PBE Se 06Sep2000                  </c></rc>
   </set>
  </array>
 </atominfo>
 <structure name="initialpos" >
  <crystal>
   <varray name="basis" >
    <v>       4.00155687       0.00000000       0.00000000 </v>
    <v>      -0.00000000      11.71362971       0.00000000 </v>
    <v>       0.00000000       0.00000000      12.36207320 </v>
   </varray>
   <i name="volume">    579.44443382 </i>
   <varray name="rec_basis" >
    <v>       0.24990273       0.00000000       0.00000000 </v>
    <v>       0.00000000       0.08537063       0.00000000 </v>
    <v>      -0.00000000      -0.00000000       0.08089258 </v>
   </varray>
  </crystal>
  <varray name="positions" >
   <v>       0.75000000       0.03809460       0.14032237 </v>
   <v>       0.25000000       0.96190540       0.85967763 </v>
   <v>       0.25000000       0.53809460       0.35967763 </v>
   <v>       0.75000000       0.46190540       0.64032237 </v>
   <v>       0.25000000       0.32959138       0.03381284 </v>
   <v>       0.75000000       0.67040862       0.96618716 </v>
   <v>       0.75000000       0.82959138       0.46618716 </v>
   <v>       0.25000000       0.17040862       0.53381284 </v>
   <v>       0.75000000       0.12752536       0.94834520 </v>
   <v>       0.25000000       0.87247464       0.05165480 </v>
   <v>       0.25000000       0.62752536       0.55165480 </v>
   <v>       0.75000000       0.37247464       0.44834520 </v>
   <v>       0.25000000       0.19210067       0.20533132 </v>
   <v>       0.75000000       0.80789933       0.79466868 </v>
   <v>       0.75000000       0.69210067       0.29466868 </v>
   <v>       0.25000000       0.30789933       0.70533132 </v>
   <v>       0.75000000       0.05409869       0.62734915 </v>
   <v>       0.25000000       0.94590131       0.37265085 </v>
   <v>       0.25000000       0.55409869       0.87265085 </v>
   <v>       0.75000000       0.44590131       0.12734915 </v>
  </varray>
 </structure>
 <calculation>
  <scstep>
   <time name="dav">    0.88    2.41</time>
   <time name="total">    1.39    3.07</time>
   <energy>
    <i name="alphaZ">    116.37456510 </i>
    <i name="ewald">  -4031.12465643 </i>
    <i name="hartreedc">   -480.58316384 </i>
    <i name="XCdc">   -376.25511299 </i>
    <i name="pawpsdc">   3832.50745354 </i>
    <i name="pawaedc"> -18799.75065889 </i>
    <i name="eentropy">     -0.00000000 </i>
    <i name="bandstr">    589.67785488 </i>
    <i name="atom">   4253.45924273 </i>
    <i name="e_fr_energy"> -14895.69447591 </i>
    <i name="e_wo_entrp"> -14895.69447591 </i>
    <i name="e_0_energy"> -14895.69447591 </i>
   </energy>
  </scstep>
  <scstep>
   <time name="dav">    0.62    0.68</time>
   <time name="total">    0.62    0.68</time>
   <energy>
    <i name="e_fr_energy"> -15662.33671135 </i>
    <i name="e_wo_entrp"> -15662.33671135 </i>
    <i name="e_0_energy"> -15662.33671135 </i>
   </energy>
  </scstep>
  <scstep>
   <time name="dav">    0.63    0.64</time>
   <time name="total">    0.63    0.64</time>
   <energy>
    <i name="e_fr_energy"> -15750.57758864 </i>
    <i name="e_wo_entrp"> -15750.57758864 </i>
    <i name="e_0_energy"> -15750.57758864 </i>
   </energy>
  </scstep>
  <scstep>
   <time name="dav">    0.55    0.55</time>
   <time name="total">    0.55    0.55</time>
   <energy>
    <i name="e_fr_energy"> -15752.80968727 </i>
    <i name="e_wo_entrp"> -15752.80968727 </i>
    <i name="e_0_energy"> -15752.80968727 </i>
   </energy>
  </scstep>
  <scstep>
   <time name="dav">   25.16   25.26</time>
   <time name="total">   26.31   26.46</time>
   <energy>
    <i name="e_fr_energy">    -78.76977247 </i>
    <i name="e_wo_entrp">    -78.76977247 </i>
    <i name="e_0_energy">    -78.76977247 </i>
   </energy>
  </scstep>
  <scstep>
   <time name="dav">   25.05   25.11</time>
   <time name="total">   26.14   26.21</time>
   <energy>
    <i name="e_fr_energy">    -72.06436560 </i>
    <i name="e_wo_entrp">    -72.06436560 </i>
    <i name="e_0_energy">    -72.06436560 </i>
   </energy>
  </scstep>
  <scstep>
   <time name="dav">   25.11   25.17</time>
   <time name="total">   26.20   26.26</time>
   <energy>
    <i name="e_fr_energy">    -73.31844858 </i>
    <i name="e_wo_entrp">    -73.31844858 </i>
    <i name="e_0_energy">    -73.31844858 </i>
   </energy>
  </scstep>
  <scstep>
   <time name="dav">   25.39   25.46</time>
   <time name="total">   26.56   26.63</time>
   <energy>
    <i name="e_fr_energy">    -73.45921465 </i>
    <i name="e_wo_entrp">    -73.45921465 </i>
    <i name="e_0_energy">    -73.45921465 </i>
   </energy>
  </scstep>
  <scstep>
   <time name="dav">   25.08   25.15</time>
   <time name="total">   26.26   26.32</time>
   <energy>
    <i name="e_fr_energy">    -73.41899021 </i>
    <i name="e_wo_entrp">    -73.41899021 </i>
    <i name="e_0_energy">    -73.41899021 </i>
   </energy>
  </scstep>
  <scstep>
   <time name="dav">   25.30   25.37</time>
   <time name="total">   26.42   26.48</time>
   <energy>
    <i name="e_fr_energy">    -73.44759738 </i>
    <i name="e_wo_entrp">    -73.44759738 </i>
    <i name="e_0_energy">    -73.44759738 </i>
   </energy>
  </scstep>
  <scstep>
   <time name="dav">   25.50   25.60</time>
   <time name="total">   26.86   26.96</time>
   <energy>
    <i name="e_fr_energy">    -73.45335938 </i>
    <i name="e_wo_entrp">    -73.45335938 </i>
    <i name="e_0_energy">    -73.45335938 </i>
   </energy>
  </scstep>
  <scstep>
   <time name="dav">   25.21   25.27</time>
   <time name="total">   26.30   26.36</time>
   <energy>
    <i name="e_fr_energy">    -73.45553319 </i>
    <i name="e_wo_entrp">    -73.45553319 </i>
    <i name="e_0_energy">    -73.45553319 </i>
   </energy>
  </scstep>
  <scstep>
   <time name="dav">   25.32   25.39</time>
   <time name="total">   26.41   26.48</time>
   <energy>
    <i name="e_fr_energy">    -73.45705230 </i>
    <i name="e_wo_entrp">    -73.45705230 </i>
    <i name="e_0_energy">    -73.45705230 </i>
   </energy>
  </scstep>
  <scstep>
   <time name="dav">   25.50   25.56</time>
   <time name="total">   26.69   26.76</time>
   <energy>
    <i name="e_fr_energy">    -73.45765444 </i>
    <i name="e_wo_entrp">    -73.45765444 </i>
    <i name="e_0_energy">    -73.45765444 </i>
   </energy>
  </scstep>
  <scstep>
   <time name="dav">   24.99   25.05</time>
   <time name="total">   26.08   26.15</time>
   <energy>
    <i name="e_fr_energy">    -73.45795181 </i>
    <i name="e_wo_entrp">    -73.45795181 </i>
    <i name="e_0_energy">    -73.45795181 </i>
   </energy>
  </scstep>
  <scstep>
   <time name="dav">   25.38   25.45</time>
   <time name="total">   26.56   26.62</time>
   <energy>
    <i name="e_fr_energy">    -73.45809301 </i>
    <i name="e_wo_entrp">    -73.45809301 </i>
    <i name="e_0_energy">    -73.45809301 </i>
   </energy>
  </scstep>
  <scstep>
   <time name="dav">   25.41   25.48</time>
   <time name="total">   26.58   26.65</time>
   <energy>
    <i name="e_fr_energy">    -73.45816008 </i>
    <i name="e_wo_entrp">    -73.45816008 </i>
    <i name="e_0_energy">    -73.45816008 </i>
   </energy>
  </scstep>
  <scstep>
   <time name="dav">   25.10   25.17</time>
   <time name="total">   26.19   26.26</time>
   <energy>
    <i name="e_fr_energy">    -73.45819354 </i>
    <i name="e_wo_entrp">    -73.45819354 </i>
    <i name="e_0_energy">    -73.45819354 </i>
   </energy>
  </scstep>
  <scstep>
   <time name="dav">   25.20   25.27</time>
   <time name="total">   26.29   26.36</time>
   <energy>
    <i name="e_fr_energy">    -73.45821007 </i>
    <i name="e_wo_entrp">    -73.45821007 </i>
    <i name="e_0_energy">    -73.45821007 </i>
   </energy>
  </scstep>
  <scstep>
   <time name="dav">   25.29   25.36</time>
   <time name="total">   26.40   26.47</time>
   <energy>
    <i name="alphaZ">    116.37456510 </i>
    <i name="ewald">  -4031.12465643 </i>
    <i name="hartreedc">   -529.87756496 </i>
    <i name="XCdc">   -302.64258206 </i>
    <i name="pawpsdc">  20829.66736990 </i>
    <i name="pawaedc"> -20350.36115543 </i>
    <i name="eentropy">     -0.00000000 </i>
    <i name="bandstr">   -229.29397835 </i>
    <i name="atom">   4253.45924273 </i>
    <i name="e_fr_energy">    -73.45821836 </i>
    <i name="e_wo_entrp">    -73.45821836 </i>
    <i name="e_0_energy">    -73.45821836 </i>
   </energy>
  </scstep>
  <structure>
   <crystal>
    <varray name="basis" >
     <v>       4.00155687       0.00000000       0.00000000 </v>
     <v>      -0.00000000      11.71362971       0.00000000 </v>
     <v>       0.00000000       0.00000000      12.36207320 </v>
    </varray>
    <i name="volume">    579.44443382 </i>
    <varray name="rec_basis" >
     <v>       0.24990273       0.00000000       0.00000000 </v>
     <v>       0.00000000       0.08537063       0.00000000 </v>
     <v>      -0.00000000      -0.00000000       0.08089258 </v>
    </varray>
   </crystal>
   <varray name="positions" >
    <v>       0.75000000       0.03809460       0.14032237 </v>
    <v>       0.25000000       0.96190540       0.85967763 </v>
    <v>       0.25000000       0.53809460       0.35967763 </v>
    <v>       0.75000000       0.46190540       0.64032237 </v>
    <v>       0.25000000       0.32959138       0.03381284 </v>
    <v>       0.75000000       0.67040862       0.96618716 </v>
    <v>       0.75000000       0.82959138       0.46618716 </v>
    <v>       0.25000000       0.17040862       0.53381284 </v>
    <v>       0.75000000       0.12752536       0.94834520 </v>
    <v>       0.25000000       0.87247464       0.05165480 </v>
    <v>       0.25000000       0.62752536       0.55165480 </v>
    <v>       0.75000000       0.37247464       0.44834520 </v>
    <v>       0.25000000       0.19210067       0.20533132 </v>
    <v>       0.75000000       0.80789933       0.79466868 </v>
    <v>       0.75000000       0.69210067       0.29466868 </v>
    <v>       0.25000000       0.30789933       0.70533132 </v>
    <v>       0.75000000       0.05409869       0.62734915 </v>
    <v>       0.25000000       0.94590131       0.37265085 </v>
    <v>       0.25000000       0.55409869       0.87265085 </v>
    <v>       0.75000000       0.44590131       0.12734915 </v>
   </varray>
  </structure>
  <varray name="forces" >
   <v>      -0.00000000       0.43026850      -0.33962225 </v>
   <v>       0.00000000      -0.43026850       0.33962225 </v>
   <v>      -0.00000000       0.43026850       0.33962225 </v>
   <v>       0.00000000      -0.43026850      -0.33962225 </v>
   <v>      -0.00000000       0.16512167       0.54419217 </v>
   <v>       0.00000000      -0.16512167      -0.54419217 </v>
   <v>      -0.00000000       0.16512167      -0.54419217 </v>
   <v>       0.00000000      -0.16512167       0.54419217 </v>
   <v>       0.00000000      -0.61560143       0.12545953 </v>
   <v>      -0.00000000       0.61560143      -0.12545953 </v>
   <v>       0.00000000      -0.61560143      -0.12545953 </v>
   <v>      -0.00000000       0.61560143       0.12545953 </v>
   <v>       0.00000000      -0.30077749      -0.59584600 </v>
   <v>      -0.00000000       0.30077749       0.59584600 </v>
   <v>       0.00000000      -0.30077749       0.59584600 </v>
   <v>      -0.00000000       0.30077749      -0.59584600 </v>
   <v>      -0.00000000       0.14930720      -0.03166793 </v>
   <v>       0.00000000      -0.14930720       0.03166793 </v>
   <v>      -0.00000000       0.14930720       0.03166793 </v>
   <v>       0.00000000      -0.14930720      -0.03166793 </v>
  </varray>
  <energy>
   <i name="e_fr_energy">    -73.45821836 </i>
   <i name="e_wo_entrp">    -73.45821836 </i>
   <i name="e_0_energy">    -73.45821836 </i>
  </energy>
  <time name="totalsc">  450.38  453.42</time>
  <eigenvalues>
   <array>
    <dimension dim="1">band</dimension>
    <dimension dim="2">kpoint</dimension>
    <dimension dim="3">spin</dimension>
    <field>eigene</field>
    <field>occ</field>
    <set>
     <set comment="spin 1">
      <set comment="kpoint 1">
       <r>  -11.6698    1.0000 </r>
       <r>  -11.4516    1.0000 </r>
       <r>  -11.0369    1.0000 </r>
       <r>  -10.9243    1.0000 </r>
       <r>  -10.7638    1.0000 </r>
       <r>  -10.6101    1.0000 </r>
       <r>   -9.9966    1.0000 </r>
       <r>   -9.8628    1.0000 </r>
       <r>   -9.7585    1.0000 </r>
       <r>   -9.6034    1.0000 </r>
       <r>   -9.5758    1.0000 </r>
       <r>   -9.5470    1.0000 </r>
       <r>   -6.2469    1.0000 </r>
       <r>   -6.0422    1.0000 </r>
       <r>   -5.9374    1.0000 </r>
       <r>   -5.4761    1.0000 </r>
       <r>   -5.3949    1.0000 </r>
       <r>   -5.3435    1.0000 </r>
       <r>   -4.2301    1.0000 </r>
       <r>   -3.8908    1.0000 </r>
       <r>   -1.2998    1.0000 </r>
       <r>   -1.2175    1.0000 </r>
       <r>   -0.6974    1.0000 </r>
       <r>   -0.5739    1.0000 </r>
       <r>   -0.2983    1.0000 </r>
       <r>   -0.1518    1.0000 </r>
       <r>   -0.0990    1.0000 </r>
       <r>    0.0705    1.0000 </r>
       <r>    0.1921    1.0000 </r>
       <r>    0.4291    1.0000 </r>
       <r>    0.6219    1.0000 </r>
       <r>    0.7929    1.0000 </r>
       <r>    0.8046    1.0000 </r>
       <r>    0.9097    1.0000 </r>
       <r>    1.1045    1.0000 </r>
       <r>    1.2225    1.0000 </r>
       <r>    1.2633    1.0000 </r>
       <r>    1.2927    1.0000 </r>
       <r>    1.5386    1.0000 </r>
       <r>    1.5446    1.0000 </r>
       <r>    1.8276    1.0000 </r>
       <r>    2.2153    1.0000 </r>
       <r>    2.2171    1.0000 </r>
       <r>    2.3787    1.0000 </r>
       <r>    2.5018    1.0000 </r>
       <r>    2.6020    1.0000 </r>
       <r>    2.6458    1.0000 </r>
       <r>    2.6948    1.0000 </r>
       <r>    2.7043    1.0000 </r>
       <r>    2.7656    1.0000 </r>
       <r>    3.0075    1.0000 </r>
       <r>    3.1564    1.0000 </r>
       <r>    3.4676    1.0000 </r>
       <r>    3.6767    1.0000 </r>
       <r>    3.6851    1.0000 </r>
       <r>    3.7254    1.0000 </r>
       <r>    5.2856    0.0000 </r>
       <r>    5.3763    0.0000 </r>
       <r>    5.4536    0.0000 </r>
       <r>    5.6430    0.0000 </r>
       <r>    5.9671    0.0000 </r>
       <r>    6.0107    0.0000 </r>
       <r>    6.4391    0.0000 </r>
       <r>    6.5482    0.0000 </r>
       <r>    6.6339    0.0000 </r>
       <r>    6.6636    0.0000 </r>
       <r>    6.7992    0.0000 </r>
       <r>    6.9670    0.0000 </r>
       <r>    7.0307    0.0000 </r>
       <r>    7.0756    0.0000 </r>
       <r>    7.1366    0.0000 </r>
       <r>    7.3004    0.0000 </r>
       <r>    7.3324    0.0000 </r>
       <r>    7.6395    0.0000 </r>
       <r>    7.8617    0.0000 </r>
       <r>    8.0607    0.0000 </r>
       <r>    8.1946    0.0000 </r>
       <r>    8.6968    0.0000 </r>
       <r>    8.8607    0.0000 </r>
       <r>    8.9773    0.0000 </r>
       <r>    9.0447    0.0000 </r>
       <r>    9.4009    0.0000 </r>
       <r>   10.4499    0.0000 </r>
       <r>   10.7077    0.0000 </r>
      </set>
      <set comment="kpoint 2">
       <r>  -11.5293    1.0000 </r>
       <r>  -11.5293    1.0000 </r>
       <r>  -11.1636    1.0000 </r>
       <r>  -11.1636    1.0000 </r>
       <r>  -10.3841    1.0000 </r>
       <r>  -10.3841    1.0000 </r>
       <r>  -10.1328    1.0000 </r>
       <r>  -10.1328    1.0000 </r>
       <r>   -9.6168    1.0000 </r>
       <r>   -9.6168    1.0000 </r>
       <r>   -9.5728    1.0000 </r>
       <r>   -9.5728    1.0000 </r>
       <r>   -6.1289    1.0000 </r>
       <r>   -6.1289    1.0000 </r>
       <r>   -5.9952    1.0000 </r>
       <r>   -5.9952    1.0000 </r>
       <r>   -4.9487    1.0000 </r>
       <r>   -4.9487    1.0000 </r>
       <r>   -4.1933    1.0000 </r>
       <r>   -4.1933    1.0000 </r>
       <r>   -1.1532    1.0000 </r>
       <r>   -1.1532    1.0000 </r>
       <r>   -0.9883    1.0000 </r>
       <r>   -0.9883    1.0000 </r>
       <r>   -0.3709    1.0000 </r>
       <r>   -0.3709    1.0000 </r>
       <r>    0.1127    1.0000 </r>
       <r>    0.1127    1.0000 </r>
       <r>    0.4110    1.0000 </r>
       <r>    0.4110    1.0000 </r>
       <r>    0.8469    1.0000 </r>
       <r>    0.8469    1.0000 </r>
       <r>    1.0727    1.0000 </r>
       <r>    1.0727    1.0000 </r>
       <r>    1.2876    1.0000 </r>
       <r>    1.2876    1.0000 </r>
       <r>    1.2881    1.0000 </r>
       <r>    1.2881    1.0000 </r>
       <r>    1.6030    1.0000 </r>
       <r>    1.6030    1.0000 </r>
       <r>    1.6577    1.0000 </r>
       <r>    1.6577    1.0000 </r>
       <r>    2.3257    1.0000 </r>
       <r>    2.3257    1.0000 </r>
       <r>    2.5991    1.0000 </r>
       <r>    2.5991    1.0000 </r>
       <r>    2.6581    1.0000 </r>
       <r>    2.6581    1.0000 </r>
       <r>    2.7680    1.0000 </r>
       <r>    2.7680    1.0000 </r>
       <r>    3.0190    1.0000 </r>
       <r>    3.0190    1.0000 </r>
       <r>    3.4712    1.0000 </r>
       <r>    3.4712    1.0000 </r>
       <r>    3.6480    1.0000 </r>
       <r>    3.6480    1.0000 </r>
       <r>    5.0889    0.0000 </r>
       <r>    5.0889    0.0000 </r>
       <r>    5.9698    0.0000 </r>
       <r>    5.9698    0.0000 </r>
       <r>    6.3949    0.0000 </r>
       <r>    6.3949    0.0000 </r>
       <r>    6.3950    0.0000 </r>
       <r>    6.3950    0.0000 </r>
       <r>    6.5144    0.0000 </r>
       <r>    6.5144    0.0000 </r>
       <r>    6.5871    0.0000 </r>
       <r>    6.5871    0.0000 </r>
       <r>    6.7453    0.0000 </r>
       <r>    6.7453    0.0000 </r>
       <r>    7.5447    0.0000 </r>
       <r>    7.5447    0.0000 </r>
       <r>    7.7020    0.0000 </r>
       <r>    7.7020    0.0000 </r>
       <r>    8.1344    0.0000 </r>
       <r>    8.1344    0.0000 </r>
       <r>    8.3503    0.0000 </r>
       <r>    8.3503    0.0000 </r>
       <r>    8.5787    0.0000 </r>
       <r>    8.5787    0.0000 </r>
       <r>    9.1922    0.0000 </r>
       <r>    9.1922    0.0000 </r>
       <r>   10.5349    0.0000 </r>
       <r>   10.5349    0.0000 </r>
      </set>
      <set comment="kpoint 3">
       <r>  -11.5769    1.0000 </r>
       <r>  -11.5769    1.0000 </r>
       <r>  -10.9615    1.0000 </r>
       <r>  -10.9615    1.0000 </r>
       <r>  -10.7019    1.0000 </r>
       <r>  -10.7019    1.0000 </r>
       <r>   -9.9120    1.0000 </r>
       <r>   -9.9120    1.0000 </r>
       <r>   -9.6459    1.0000 </r>
       <r>   -9.6459    1.0000 </r>
       <r>   -9.6016    1.0000 </r>
       <r>   -9.6016    1.0000 </r>
       <r>   -6.2165    1.0000 </r>
       <r>   -6.2165    1.0000 </r>
       <r>   -5.6309    1.0000 </r>
       <r>   -5.6309    1.0000 </r>
       <r>   -5.4026    1.0000 </r>
       <r>   -5.4026    1.0000 </r>
       <r>   -4.0133    1.0000 </r>
       <r>   -4.0133    1.0000 </r>
       <r>   -1.2045    1.0000 </r>
       <r>   -1.2045    1.0000 </r>
       <r>   -0.6873    1.0000 </r>
       <r>   -0.6873    1.0000 </r>
       <r>   -0.2083    1.0000 </r>
       <r>   -0.2083    1.0000 </r>
       <r>    0.0188    1.0000 </r>
       <r>    0.0188    1.0000 </r>
       <r>    0.0289    1.0000 </r>
       <r>    0.0289    1.0000 </r>
       <r>    0.7405    1.0000 </r>
       <r>    0.7405    1.0000 </r>
       <r>    0.9209    1.0000 </r>
       <r>    0.9209    1.0000 </r>
       <r>    0.9697    1.0000 </r>
       <r>    0.9697    1.0000 </r>
       <r>    1.5494    1.0000 </r>
       <r>    1.5494    1.0000 </r>
       <r>    1.7254    1.0000 </r>
       <r>    1.7254    1.0000 </r>
       <r>    2.1145    1.0000 </r>
       <r>    2.1145    1.0000 </r>
       <r>    2.1571    1.0000 </r>
       <r>    2.1571    1.0000 </r>
       <r>    2.4749    1.0000 </r>
       <r>    2.4749    1.0000 </r>
       <r>    2.5347    1.0000 </r>
       <r>    2.5347    1.0000 </r>
       <r>    2.7291    1.0000 </r>
       <r>    2.7291    1.0000 </r>
       <r>    3.1638    1.0000 </r>
       <r>    3.1638    1.0000 </r>
       <r>    3.5944    1.0000 </r>
       <r>    3.5944    1.0000 </r>
       <r>    3.8053    1.0000 </r>
       <r>    3.8053    1.0000 </r>
       <r>    5.2178    0.0000 </r>
       <r>    5.2178    0.0000 </r>
       <r>    5.5966    0.0000 </r>
       <r>    5.5966    0.0000 </r>
       <r>    6.0165    0.0000 </r>
       <r>    6.0165    0.0000 </r>
       <r>    6.4989    0.0000 </r>
       <r>    6.4989    0.0000 </r>
       <r>    6.5619    0.0000 </r>
       <r>    6.5619    0.0000 </r>
       <r>    6.8208    0.0000 </r>
       <r>    6.8208    0.0000 </r>
       <r>    7.1664    0.0000 </r>
       <r>    7.1664    0.0000 </r>
       <r>    7.2219    0.0000 </r>
       <r>    7.2219    0.0000 </r>
       <r>    7.4102    0.0000 </r>
       <r>    7.4102    0.0000 </r>
       <r>    7.9977    0.0000 </r>
       <r>    7.9977    0.0000 </r>
       <r>    8.4857    0.0000 </r>
       <r>    8.4857    0.0000 </r>
       <r>    8.9415    0.0000 </r>
       <r>    8.9415    0.0000 </r>
       <r>    9.1094    0.0000 </r>
       <r>    9.1094    0.0000 </r>
       <r>   10.5240    0.0000 </r>
       <r>   10.5240    0.0000 </r>
      </set>
     </set>
     <set comment="spin 2">
      <set comment="kpoint 1">
       <r>  -11.6699    1.0000 </r>
       <r>  -11.4517    1.0000 </r>
       <r>  -11.0370    1.0000 </r>
       <r>  -10.9245    1.0000 </r>
       <r>  -10.7639    1.0000 </r>
       <r>  -10.6102    1.0000 </r>
       <r>   -9.9967    1.0000 </r>
       <r>   -9.8629    1.0000 </r>
       <r>   -9.7587    1.0000 </r>
       <r>   -9.6035    1.0000 </r>
       <r>   -9.5759    1.0000 </r>
       <r>   -9.5471    1.0000 </r>
       <r>   -6.2470    1.0000 </r>
       <r>   -6.0424    1.0000 </r>
       <r>   -5.9375    1.0000 </r>
       <r>   -5.4762    1.0000 </r>
       <r>   -5.3950    1.0000 </r>
       <r>   -5.3436    1.0000 </r>
       <r>   -4.2303    1.0000 </r>
       <r>   -3.8909    1.0000 </r>
       <r>   -1.2999    1.0000 </r>
       <r>   -1.2176    1.0000 </r>
       <r>   -0.6975    1.0000 </r>
       <r>   -0.5740    1.0000 </r>
       <r>   -0.2984    1.0000 </r>
       <r>   -0.1519    1.0000 </r>
       <r>   -0.0991    1.0000 </r>
       <r>    0.0704    1.0000 </r>
       <r>    0.1920    1.0000 </r>
       <r>    0.4289    1.0000 </r>
       <r>    0.6218    1.0000 </r>
       <r>    0.7928    1.0000 </r>
       <r>    0.8045    1.0000 </r>
       <r>    0.9096    1.0000 </r>
       <r>    1.1043    1.0000 </r>
       <r>    1.2223    1.0000 </r>
       <r>    1.2632    1.0000 </r>
       <r>    1.2926    1.0000 </r>
       <r>    1.5385    1.0000 </r>
       <r>    1.5444    1.0000 </r>
       <r>    1.8275    1.0000 </r>
       <r>    2.2151    1.0000 </r>
       <r>    2.2170    1.0000 </r>
       <r>    2.3786    1.0000 </r>
       <r>    2.5016    1.0000 </r>
       <r>    2.6019    1.0000 </r>
       <r>    2.6457    1.0000 </r>
       <r>    2.6947    1.0000 </r>
       <r>    2.7042    1.0000 </r>
       <r>    2.7655    1.0000 </r>
       <r>    3.0073    1.0000 </r>
       <r>    3.1563    1.0000 </r>
       <r>    3.4674    1.0000 </r>
       <r>    3.6766    1.0000 </r>
       <r>    3.6850    1.0000 </r>
       <r>    3.7253    1.0000 </r>
       <r>    5.2855    0.0000 </r>
       <r>    5.3761    0.0000 </r>
       <r>    5.4534    0.0000 </r>
       <r>    5.6429    0.0000 </r>
       <r>    5.9670    0.0000 </r>
       <r>    6.0106    0.0000 </r>
       <r>    6.4390    0.0000 </r>
       <r>    6.5481    0.0000 </r>
       <r>    6.6338    0.0000 </r>
       <r>    6.6635    0.0000 </r>
       <r>    6.7991    0.0000 </r>
       <r>    6.9669    0.0000 </r>
       <r>    7.0306    0.0000 </r>
       <r>    7.0755    0.0000 </r>
       <r>    7.1365    0.0000 </r>
       <r>    7.3003    0.0000 </r>
       <r>    7.3323    0.0000 </r>
       <r>    7.6394    0.0000 </r>
       <r>    7.8616    0.0000 </r>
       <r>    8.0605    0.0000 </r>
       <r>    8.1944    0.0000 </r>
       <r>    8.6967    0.0000 </r>
       <r>    8.8605    0.0000 </r>
       <r>    8.9772    0.0000 </r>
       <r>    9.0445    0.0000 </r>
       <r>    9.4008    0.0000 </r>
       <r>   10.4497    0.0000 </r>
       <r>   10.7040    0.0000 </r>
      </set>
      <set comment="kpoint 2">
       <r>  -11.5294    1.0000 </r>
       <r>  -11.5294    1.0000 </r>
       <r>  -11.1637    1.0000 </r>
       <r>  -11.1637    1.0000 </r>
       <r>  -10.3842    1.0000 </r>
       <r>  -10.3842    1.0000 </r>
       <r>  -10.1329    1.0000 </r>
       <r>  -10.1329    1.0000 </r>
       <r>   -9.6169    1.0000 </r>
       <r>   -9.6169    1.0000 </r>
       <r>   -9.5729    1.0000 </r>
       <r>   -9.5729    1.0000 </r>
       <r>   -6.1290    1.0000 </r>
       <r>   -6.1290    1.0000 </r>
       <r>   -5.9953    1.0000 </r>
       <r>   -5.9953    1.0000 </r>
       <r>   -4.9488    1.0000 </r>
       <r>   -4.9488    1.0000 </r>
       <r>   -4.1934    1.0000 </r>
       <r>   -4.1934    1.0000 </r>
       <r>   -1.1533    1.0000 </r>
       <r>   -1.1533    1.0000 </r>
       <r>   -0.9884    1.0000 </r>
       <r>   -0.9884    1.0000 </r>
       <r>   -0.3710    1.0000 </r>
       <r>   -0.3710    1.0000 </r>
       <r>    0.1126    1.0000 </r>
       <r>    0.1126    1.0000 </r>
       <r>    0.4109    1.0000 </r>
       <r>    0.4109    1.0000 </r>
       <r>    0.8468    1.0000 </r>
       <r>    0.8468    1.0000 </r>
       <r>    1.0726    1.0000 </r>
       <r>    1.0726    1.0000 </r>
       <r>    1.2875    1.0000 </r>
       <r>    1.2875    1.0000 </r>
       <r>    1.2880    1.0000 </r>
       <r>    1.2880    1.0000 </r>
       <r>    1.6028    1.0000 </r>
       <r>    1.6028    1.0000 </r>
       <r>    1.6576    1.0000 </r>
       <r>    1.6576    1.0000 </r>
       <r>    2.3256    1.0000 </r>
       <r>    2.3256    1.0000 </r>
       <r>    2.5989    1.0000 </r>
       <r>    2.5989    1.0000 </r>
       <r>    2.6580    1.0000 </r>
       <r>    2.6580    1.0000 </r>
       <r>    2.7679    1.0000 </r>
       <r>    2.7679    1.0000 </r>
       <r>    3.0189    1.0000 </r>
       <r>    3.0189    1.0000 </r>
       <r>    3.4711    1.0000 </r>
       <r>    3.4711    1.0000 </r>
       <r>    3.6479    1.0000 </r>
       <r>    3.6479    1.0000 </r>
       <r>    5.0888    0.0000 </r>
       <r>    5.0888    0.0000 </r>
       <r>    5.9697    0.0000 </r>
       <r>    5.9697    0.0000 </r>
       <r>    6.3947    0.0000 </r>
       <r>    6.3947    0.0000 </r>
       <r>    6.3949    0.0000 </r>
       <r>    6.3949    0.0000 </r>
       <r>    6.5143    0.0000 </r>
       <r>    6.5143    0.0000 </r>
       <r>    6.5869    0.0000 </r>
       <r>    6.5869    0.0000 </r>
       <r>    6.7452    0.0000 </r>
       <r>    6.7452    0.0000 </r>
       <r>    7.5446    0.0000 </r>
       <r>    7.5446    0.0000 </r>
       <r>    7.7019    0.0000 </r>
       <r>    7.7019    0.0000 </r>
       <r>    8.1343    0.0000 </r>
       <r>    8.1343    0.0000 </r>
       <r>    8.3502    0.0000 </r>
       <r>    8.3502    0.0000 </r>
       <r>    8.5786    0.0000 </r>
       <r>    8.5786    0.0000 </r>
       <r>    9.1921    0.0000 </r>
       <r>    9.1921    0.0000 </r>
       <r>   10.5347    0.0000 </r>
       <r>   10.5347    0.0000 </r>
      </set>
      <set comment="kpoint 3">
       <r>  -11.5770    1.0000 </r>
       <r>  -11.5770    1.0000 </r>
       <r>  -10.9616    1.0000 </r>
       <r>  -10.9616    1.0000 </r>
       <r>  -10.7020    1.0000 </r>
       <r>  -10.7020    1.0000 </r>
       <r>   -9.9121    1.0000 </r>
       <r>   -9.9121    1.0000 </r>
       <r>   -9.6460    1.0000 </r>
       <r>   -9.6460    1.0000 </r>
       <r>   -9.6017    1.0000 </r>
       <r>   -9.6017    1.0000 </r>
       <r>   -6.2166    1.0000 </r>
       <r>   -6.2166    1.0000 </r>
       <r>   -5.6310    1.0000 </r>
       <r>   -5.6310    1.0000 </r>
       <r>   -5.4028    1.0000 </r>
       <r>   -5.4028    1.0000 </r>
       <r>   -4.0135    1.0000 </r>
       <r>   -4.0135    1.0000 </r>
       <r>   -1.2046    1.0000 </r>
       <r>   -1.2046    1.0000 </r>
       <r>   -0.6874    1.0000 </r>
       <r>   -0.6874    1.0000 </r>
       <r>   -0.2084    1.0000 </r>
       <r>   -0.2084    1.0000 </r>
       <r>    0.0187    1.0000 </r>
       <r>    0.0187    1.0000 </r>
       <r>    0.0288    1.0000 </r>
       <r>    0.0288    1.0000 </r>
       <r>    0.7404    1.0000 </r>
       <r>    0.7404    1.0000 </r>
       <r>    0.9208    1.0000 </r>
       <r>    0.9208    1.0000 </r>
       <r>    0.9696    1.0000 </r>
       <r>    0.9696    1.0000 </r>
       <r>    1.5493    1.0000 </r>
       <r>    1.5493    1.0000 </r>
       <r>    1.7253    1.0000 </r>
       <r>    1.7253    1.0000 </r>
       <r>    2.1143    1.0000 </r>
       <r>    2.1143    1.0000 </r>
       <r>    2.1569    1.0000 </r>
       <r>    2.1569    1.0000 </r>
       <r>    2.4748    1.0000 </r>
       <r>    2.4748    1.0000 </r>
       <r>    2.5346    1.0000 </r>
       <r>    2.5346    1.0000 </r>
       <r>    2.7290    1.0000 </r>
       <r>    2.7290    1.0000 </r>
       <r>    3.1636    1.0000 </r>
       <r>    3.1636    1.0000 </r>
       <r>    3.5943    1.0000 </r>
       <r>    3.5943    1.0000 </r>
       <r>    3.8052    1.0000 </r>
       <r>    3.8052    1.0000 </r>
       <r>    5.2177    0.0000 </r>
       <r>    5.2177    0.0000 </r>
       <r>    5.5965    0.0000 </r>
       <r>    5.5965    0.0000 </r>
       <r>    6.0163    0.0000 </r>
       <r>    6.0163    0.0000 </r>
       <r>    6.4987    0.0000 </r>
       <r>    6.4987    0.0000 </r>
       <r>    6.5618    0.0000 </r>
       <r>    6.5618    0.0000 </r>
       <r>    6.8207    0.0000 </r>
       <r>    6.8207    0.0000 </r>
       <r>    7.1663    0.0000 </r>
       <r>    7.1663    0.0000 </r>
       <r>    7.2218    0.0000 </r>
       <r>    7.2218    0.0000 </r>
       <r>    7.4101    0.0000 </r>
       <r>    7.4101    0.0000 </r>
       <r>    7.9976    0.0000 </r>
       <r>    7.9976    0.0000 </r>
       <r>    8.4855    0.0000 </r>
       <r>    8.4855    0.0000 </r>
       <r>    8.9414    0.0000 </r>
       <r>    8.9414    0.0000 </r>
       <r>    9.1092    0.0000 </r>
       <r>    9.1092    0.0000 </r>
       <r>   10.5238    0.0000 </r>
       <r>   10.5238    0.0000 </r>
      </set>
     </set>
    </set>
   </array>
  </eigenvalues>
  <separator name="orbital magnetization" >
   <v name="MAGDIPOLOUT">      0.00000000      0.00000000      0.00000000</v>
  </separator>
  <dos>
   <i name="efermi">      3.88814440 </i>
   <total>
    <array>
     <dimension dim="1">gridpoints</dimension>
     <dimension dim="2">spin</dimension>
     <field>energy</field>
     <field>total</field>
     <field>integrated</field>
     <set>
      <set comment="spin 1">
       <r>   -12.7888     0.0000     0.0000 </r>
       <r>   -12.7068     0.0000     0.0000 </r>
       <r>   -12.6247     0.0000     0.0000 </r>
       <r>   -12.5427     0.0000     0.0000 </r>
       <r>   -12.4606     0.0000     0.0000 </r>
       <r>   -12.3786     0.0000     0.0000 </r>
       <r>   -12.2965     0.0000     0.0000 </r>
       <r>   -12.2145     0.0000     0.0000 </r>
       <r>   -12.1324     0.0000     0.0000 </r>
       <r>   -12.0504     0.0000     0.0000 </r>
       <r>   -11.9683     0.0000     0.0000 </r>
       <r>   -11.8863     0.0000     0.0000 </r>
       <r>   -11.8042     0.0000     0.0000 </r>
       <r>   -11.7221     0.0000     0.0000 </r>
       <r>   -11.6401     4.0624     0.3333 </r>
       <r>   -11.5580     8.0943     0.9975 </r>
       <r>   -11.4760     8.1259     1.6668 </r>
       <r>   -11.3939     4.0614     2.0000 </r>
       <r>   -11.3119     0.0000     2.0000 </r>
       <r>   -11.2298     0.0000     2.0000 </r>
       <r>   -11.1478     8.0217     2.6582 </r>
       <r>   -11.0657     0.0001     2.6667 </r>
       <r>   -10.9837     4.0694     3.0006 </r>
       <r>   -10.9016    12.1778     3.9998 </r>
       <r>   -10.8196     0.0000     4.0000 </r>
       <r>   -10.7375     4.0621     4.3333 </r>
       <r>   -10.6555     8.1250     5.0000 </r>
       <r>   -10.5734     4.0625     5.3333 </r>
       <r>   -10.4914     0.0000     5.3333 </r>
       <r>   -10.4093     0.0015     5.3335 </r>
       <r>   -10.3273     8.1235     6.0000 </r>
       <r>   -10.2452     0.0000     6.0000 </r>
       <r>   -10.1632     0.0001     6.0000 </r>
       <r>   -10.0811     8.1249     6.6667 </r>
       <r>    -9.9991     1.4832     6.7884 </r>
       <r>    -9.9170     4.5329     7.1603 </r>
       <r>    -9.8350    10.2336     8.0000 </r>
       <r>    -9.7529     3.1986     8.2625 </r>
       <r>    -9.6709     0.0016     8.3335 </r>
       <r>    -9.5888    28.2960    10.6552 </r>
       <r>    -9.5068    16.0188    12.0000 </r>
       <r>    -9.4247     0.0000    12.0000 </r>
       <r>    -9.3427     0.0000    12.0000 </r>
       <r>    -9.2606     0.0000    12.0000 </r>
       <r>    -9.1786     0.0000    12.0000 </r>
       <r>    -9.0965     0.0000    12.0000 </r>
       <r>    -9.0144     0.0000    12.0000 </r>
       <r>    -8.9324     0.0000    12.0000 </r>
       <r>    -8.8503     0.0000    12.0000 </r>
       <r>    -8.7683     0.0000    12.0000 </r>
       <r>    -8.6862     0.0000    12.0000 </r>
       <r>    -8.6042     0.0000    12.0000 </r>
       <r>    -8.5221     0.0000    12.0000 </r>
       <r>    -8.4401     0.0000    12.0000 </r>
       <r>    -8.3580     0.0000    12.0000 </r>
       <r>    -8.2760     0.0000    12.0000 </r>
       <r>    -8.1939     0.0000    12.0000 </r>
       <r>    -8.1119     0.0000    12.0000 </r>
       <r>    -8.0298     0.0000    12.0000 </r>
       <r>    -7.9478     0.0000    12.0000 </r>
       <r>    -7.8657     0.0000    12.0000 </r>
       <r>    -7.7837     0.0000    12.0000 </r>
       <r>    -7.7016     0.0000    12.0000 </r>
       <r>    -7.6196     0.0000    12.0000 </r>
       <r>    -7.5375     0.0000    12.0000 </r>
       <r>    -7.4555     0.0000    12.0000 </r>
       <r>    -7.3734     0.0000    12.0000 </r>
       <r>    -7.2914     0.0000    12.0000 </r>
       <r>    -7.2093     0.0000    12.0000 </r>
       <r>    -7.1273     0.0000    12.0000 </r>
       <r>    -7.0452     0.0000    12.0000 </r>
       <r>    -6.9632     0.0000    12.0000 </r>
       <r>    -6.8811     0.0000    12.0000 </r>
       <r>    -6.7991     0.0000    12.0000 </r>
       <r>    -6.7170     0.0000    12.0000 </r>
       <r>    -6.6350     0.0000    12.0000 </r>
       <r>    -6.5529     0.0000    12.0000 </r>
       <r>    -6.4709     0.0000    12.0000 </r>
       <r>    -6.3888     0.0000    12.0000 </r>
       <r>    -6.3068     0.0000    12.0000 </r>
       <r>    -6.2247     5.0653    12.4156 </r>
       <r>    -6.1426     7.3262    13.0170 </r>
       <r>    -6.0606     7.9367    13.6682 </r>
       <r>    -5.9785    12.0940    14.6606 </r>
       <r>    -5.8965     4.0625    15.0000 </r>
       <r>    -5.8144     0.0000    15.0000 </r>
       <r>    -5.7324     0.0000    15.0000 </r>
       <r>    -5.6503     0.0241    15.0020 </r>
       <r>    -5.5683     8.1009    15.6667 </r>
       <r>    -5.4862     0.3075    15.6919 </r>
       <r>    -5.4042     7.4958    16.3069 </r>
       <r>    -5.3221     7.7372    17.3329 </r>
       <r>    -5.2401     0.0000    17.3333 </r>
       <r>    -5.1580     0.0000    17.3333 </r>
       <r>    -5.0760     0.0000    17.3333 </r>
       <r>    -4.9939     0.0000    17.3333 </r>
       <r>    -4.9119     8.1250    18.0000 </r>
       <r>    -4.8298     0.0000    18.0000 </r>
       <r>    -4.7478     0.0000    18.0000 </r>
       <r>    -4.6657     0.0000    18.0000 </r>
       <r>    -4.5837     0.0000    18.0000 </r>
       <r>    -4.5016     0.0000    18.0000 </r>
       <r>    -4.4196     0.0000    18.0000 </r>
       <r>    -4.3375     0.0000    18.0000 </r>
       <r>    -4.2555     0.0007    18.0001 </r>
       <r>    -4.1734    12.1666    18.9983 </r>
       <r>    -4.0914     0.0000    19.0000 </r>
       <r>    -4.0093     5.8146    19.4771 </r>
       <r>    -3.9273     0.0000    19.6667 </r>
       <r>    -3.8452     4.0625    20.0000 </r>
       <r>    -3.7632     0.0000    20.0000 </r>
       <r>    -3.6811     0.0000    20.0000 </r>
       <r>    -3.5991     0.0000    20.0000 </r>
       <r>    -3.5170     0.0000    20.0000 </r>
       <r>    -3.4349     0.0000    20.0000 </r>
       <r>    -3.3529     0.0000    20.0000 </r>
       <r>    -3.2708     0.0000    20.0000 </r>
       <r>    -3.1888     0.0000    20.0000 </r>
       <r>    -3.1067     0.0000    20.0000 </r>
       <r>    -3.0247     0.0000    20.0000 </r>
       <r>    -2.9426     0.0000    20.0000 </r>
       <r>    -2.8606     0.0000    20.0000 </r>
       <r>    -2.7785     0.0000    20.0000 </r>
       <r>    -2.6965     0.0000    20.0000 </r>
       <r>    -2.6144     0.0000    20.0000 </r>
       <r>    -2.5324     0.0000    20.0000 </r>
       <r>    -2.4503     0.0000    20.0000 </r>
       <r>    -2.3683     0.0000    20.0000 </r>
       <r>    -2.2862     0.0000    20.0000 </r>
       <r>    -2.2042     0.0000    20.0000 </r>
       <r>    -2.1221     0.0000    20.0000 </r>
       <r>    -2.0401     0.0000    20.0000 </r>
       <r>    -1.9580     0.0000    20.0000 </r>
       <r>    -1.8760     0.0000    20.0000 </r>
       <r>    -1.7939     0.0000    20.0000 </r>
       <r>    -1.7119     0.0000    20.0000 </r>
       <r>    -1.6298     0.0000    20.0000 </r>
       <r>    -1.5478     0.0000    20.0000 </r>
       <r>    -1.4657     0.0000    20.0000 </r>
       <r>    -1.3837     0.0000    20.0000 </r>
       <r>    -1.3016     1.6097    20.1321 </r>
       <r>    -1.2196     1.6960    20.4725 </r>
       <r>    -1.1375    18.5082    21.9911 </r>
       <r>    -1.0555     0.0000    22.0000 </r>
       <r>    -0.9734     7.9817    22.6549 </r>
       <r>    -0.8914     0.0000    22.6667 </r>
       <r>    -0.8093     0.0000    22.6667 </r>
       <r>    -0.7273     0.0000    22.6667 </r>
       <r>    -0.6452    12.1874    23.6667 </r>
       <r>    -0.5631     3.8004    23.9785 </r>
       <r>    -0.4811     0.0000    24.0000 </r>
       <r>    -0.3990     0.0003    24.0000 </r>
       <r>    -0.3170     8.1412    24.6680 </r>
       <r>    -0.2349     4.0467    25.0001 </r>
       <r>    -0.1529     9.8969    25.8121 </r>
       <r>    -0.0708     4.0624    26.3333 </r>
       <r>     0.0112     1.1896    26.4309 </r>
       <r>     0.0933    19.1445    28.0018 </r>
       <r>     0.1753     8.1368    28.6696 </r>
       <r>     0.2574     4.0265    29.0000 </r>
       <r>     0.3394     0.0000    29.0000 </r>
       <r>     0.4215     8.1349    29.6675 </r>
       <r>     0.5035     3.4869    30.0000 </r>
       <r>     0.5856     0.0000    30.0000 </r>
       <r>     0.6676     4.0625    30.3333 </r>
       <r>     0.7497     7.3270    30.9345 </r>
       <r>     0.8317     8.2553    31.6774 </r>
       <r>     0.9138    12.1932    32.6778 </r>
       <r>     0.9958    14.9709    33.9999 </r>
       <r>     1.0779     6.2346    34.5116 </r>
       <r>     1.1599     4.0621    35.0000 </r>
       <r>     1.2420     4.0560    35.3328 </r>
       <r>     1.3240    24.3696    37.3333 </r>
       <r>     1.4061     0.0000    37.3333 </r>
       <r>     1.4881     0.0000    37.3333 </r>
       <r>     1.5702    16.2360    38.6655 </r>
       <r>     1.6522     9.9169    39.4804 </r>
       <r>     1.7343    13.6096    40.5971 </r>
       <r>     1.8163     0.2260    40.6852 </r>
       <r>     1.8984     3.8365    41.0000 </r>
       <r>     1.9804     0.0000    41.0000 </r>
       <r>     2.0625     0.0000    41.0000 </r>
       <r>     2.1446     8.4376    41.6923 </r>
       <r>     2.2266    15.3493    42.9518 </r>
       <r>     2.3087     0.0640    43.0053 </r>
       <r>     2.3907    11.9426    43.9852 </r>
       <r>     2.4728     3.0816    44.2529 </r>
       <r>     2.5548    17.2123    45.6651 </r>
       <r>     2.6369    12.6140    46.7017 </r>
       <r>     2.7189    20.4054    48.3760 </r>
       <r>     2.8010    19.7119    50.0000 </r>
       <r>     2.8830     0.0000    50.0000 </r>
       <r>     2.9651     0.0000    50.0000 </r>
       <r>     3.0471    12.1872    51.0000 </r>
       <r>     3.1292     0.0002    51.0000 </r>
       <r>     3.2112    12.1872    52.0000 </r>
       <r>     3.2933     0.0000    52.0000 </r>
       <r>     3.3753     0.0000    52.0000 </r>
       <r>     3.4574     0.5074    52.0416 </r>
       <r>     3.5394    11.6801    53.0000 </r>
       <r>     3.6215     8.1252    53.6667 </r>
       <r>     3.7035    16.2340    54.9988 </r>
       <r>     3.7856     4.0801    55.3351 </r>
       <r>     3.8676     8.1033    56.0000 </r>
       <r>     3.9497     0.0000    56.0000 </r>
       <r>     4.0317     0.0000    56.0000 </r>
       <r>     4.1138     0.0000    56.0000 </r>
       <r>     4.1958     0.0000    56.0000 </r>
       <r>     4.2779     0.0000    56.0000 </r>
       <r>     4.3599     0.0000    56.0000 </r>
       <r>     4.4420     0.0000    56.0000 </r>
       <r>     4.5240     0.0000    56.0000 </r>
       <r>     4.6061     0.0000    56.0000 </r>
       <r>     4.6881     0.0000    56.0000 </r>
       <r>     4.7702     0.0000    56.0000 </r>
       <r>     4.8522     0.0000    56.0000 </r>
       <r>     4.9343     0.0000    56.0000 </r>
       <r>     5.0164     0.0000    56.0000 </r>
       <r>     5.0984     7.3888    56.6063 </r>
       <r>     5.1805     0.0000    56.6667 </r>
       <r>     5.2625     8.1272    57.3335 </r>
       <r>     5.3446     4.0603    57.6667 </r>
       <r>     5.4266     4.0628    58.0000 </r>
       <r>     5.5087     4.0622    58.3333 </r>
       <r>     5.5907     1.6468    58.4685 </r>
       <r>     5.6728    10.5407    59.3333 </r>
       <r>     5.7548     0.0000    59.3333 </r>
       <r>     5.8369     0.0000    59.3333 </r>
       <r>     5.9189     0.0000    59.3333 </r>
       <r>     6.0010    12.6479    60.3711 </r>
       <r>     6.0830    11.7270    61.3333 </r>
       <r>     6.1651     0.0000    61.3333 </r>
       <r>     6.2471     0.0000    61.3333 </r>
       <r>     6.3292     0.0000    61.3333 </r>
       <r>     6.4112    16.0785    62.6526 </r>
       <r>     6.4933     5.8221    63.1444 </r>
       <r>     6.5753    26.8350    65.3462 </r>
       <r>     6.6574    12.5611    66.3964 </r>
       <r>     6.7394     4.9508    66.8028 </r>
       <r>     6.8215    14.9028    68.0256 </r>
       <r>     6.9035     0.0000    68.3333 </r>
       <r>     6.9856     4.0451    68.6652 </r>
       <r>     7.0676     4.5895    69.0432 </r>
       <r>     7.1497     7.5405    69.6619 </r>
       <r>     7.2317    15.5047    70.9449 </r>
       <r>     7.3138     3.9610    71.3250 </r>
       <r>     7.3958     4.2166    71.6807 </r>
       <r>     7.4779     7.9534    72.3333 </r>
       <r>     7.5599     7.9999    72.9897 </r>
       <r>     7.6420     2.5905    73.2126 </r>
       <r>     7.7241     8.1175    73.9994 </r>
       <r>     7.8061     0.0000    74.0000 </r>
       <r>     7.8882     4.0621    74.3333 </r>
       <r>     7.9702     0.0004    74.3334 </r>
       <r>     8.0523     8.6010    75.0391 </r>
       <r>     8.1343     7.5905    75.6619 </r>
       <r>     8.2164     4.0583    76.3330 </r>
       <r>     8.2984     0.0000    76.3333 </r>
       <r>     8.3805     8.1249    77.0000 </r>
       <r>     8.4625     0.0043    77.0004 </r>
       <r>     8.5446     8.1207    77.6667 </r>
       <r>     8.6266     8.1250    78.3333 </r>
       <r>     8.7087     3.8748    78.6513 </r>
       <r>     8.7907     0.0000    78.6667 </r>
       <r>     8.8728     3.8867    78.9856 </r>
       <r>     8.9548     7.8837    79.6469 </r>
       <r>     9.0369     4.6094    80.0451 </r>
       <r>     9.1189    10.9195    80.9411 </r>
       <r>     9.2010     7.2543    81.5952 </r>
       <r>     9.2830     0.0000    81.6667 </r>
       <r>     9.3651     0.0000    81.6667 </r>
       <r>     9.4471     4.0625    82.0000 </r>
       <r>     9.5292     0.0000    82.0000 </r>
       <r>     9.6112     0.0000    82.0000 </r>
       <r>     9.6933     0.0000    82.0000 </r>
       <r>     9.7753     0.0000    82.0000 </r>
       <r>     9.8574     0.0000    82.0000 </r>
       <r>     9.9394     0.0000    82.0000 </r>
       <r>    10.0215     0.0000    82.0000 </r>
       <r>    10.1035     0.0000    82.0000 </r>
       <r>    10.1856     0.0000    82.0000 </r>
       <r>    10.2676     0.0000    82.0000 </r>
       <r>    10.3497     0.0000    82.0000 </r>
       <r>    10.4317     0.0208    82.0017 </r>
       <r>    10.5138     4.6600    82.3841 </r>
       <r>    10.5959    15.6316    83.6667 </r>
       <r>    10.6779     0.0000    83.6667 </r>
       <r>    10.7600     4.0624    84.0000 </r>
       <r>    10.8420     0.0000    84.0000 </r>
       <r>    10.9241     0.0000    84.0000 </r>
       <r>    11.0061     0.0000    84.0000 </r>
       <r>    11.0882     0.0000    84.0000 </r>
       <r>    11.1702     0.0000    84.0000 </r>
       <r>    11.2523     0.0000    84.0000 </r>
       <r>    11.3343     0.0000    84.0000 </r>
       <r>    11.4164     0.0000    84.0000 </r>
       <r>    11.4984     0.0000    84.0000 </r>
       <r>    11.5805     0.0000    84.0000 </r>
       <r>    11.6625     0.0000    84.0000 </r>
       <r>    11.7446     0.0000    84.0000 </r>
       <r>    11.8266     0.0000    84.0000 </r>
      </set>
      <set comment="spin 2">
       <r>   -12.7888     0.0000     0.0000 </r>
       <r>   -12.7068     0.0000     0.0000 </r>
       <r>   -12.6247     0.0000     0.0000 </r>
       <r>   -12.5427     0.0000     0.0000 </r>
       <r>   -12.4606     0.0000     0.0000 </r>
       <r>   -12.3786     0.0000     0.0000 </r>
       <r>   -12.2965     0.0000     0.0000 </r>
       <r>   -12.2145     0.0000     0.0000 </r>
       <r>   -12.1324     0.0000     0.0000 </r>
       <r>   -12.0504     0.0000     0.0000 </r>
       <r>   -11.9683     0.0000     0.0000 </r>
       <r>   -11.8863     0.0000     0.0000 </r>
       <r>   -11.8042     0.0000     0.0000 </r>
       <r>   -11.7221     0.0000     0.0000 </r>
       <r>   -11.6401     4.0624     0.3333 </r>
       <r>   -11.5580     8.0958     0.9976 </r>
       <r>   -11.4760     8.1260     1.6668 </r>
       <r>   -11.3939     4.0613     2.0000 </r>
       <r>   -11.3119     0.0000     2.0000 </r>
       <r>   -11.2298     0.0000     2.0000 </r>
       <r>   -11.1478     8.0260     2.6585 </r>
       <r>   -11.0657     0.0001     2.6667 </r>
       <r>   -10.9837     4.0698     3.0006 </r>
       <r>   -10.9016    12.1775     3.9998 </r>
       <r>   -10.8196     0.0000     4.0000 </r>
       <r>   -10.7375     4.0621     4.3333 </r>
       <r>   -10.6555     8.1250     5.0000 </r>
       <r>   -10.5734     4.0625     5.3333 </r>
       <r>   -10.4914     0.0000     5.3333 </r>
       <r>   -10.4093     0.0016     5.3335 </r>
       <r>   -10.3273     8.1234     6.0000 </r>
       <r>   -10.2452     0.0000     6.0000 </r>
       <r>   -10.1632     0.0001     6.0000 </r>
       <r>   -10.0811     8.1249     6.6667 </r>
       <r>    -9.9991     1.5079     6.7904 </r>
       <r>    -9.9170     4.5480     7.1636 </r>
       <r>    -9.8350    10.1939     8.0000 </r>
       <r>    -9.7529     3.2163     8.2639 </r>
       <r>    -9.6709     0.0017     8.3335 </r>
       <r>    -9.5888    28.3170    10.6569 </r>
       <r>    -9.5068    16.0102    12.0000 </r>
       <r>    -9.4247     0.0000    12.0000 </r>
       <r>    -9.3427     0.0000    12.0000 </r>
       <r>    -9.2606     0.0000    12.0000 </r>
       <r>    -9.1786     0.0000    12.0000 </r>
       <r>    -9.0965     0.0000    12.0000 </r>
       <r>    -9.0144     0.0000    12.0000 </r>
       <r>    -8.9324     0.0000    12.0000 </r>
       <r>    -8.8503     0.0000    12.0000 </r>
       <r>    -8.7683     0.0000    12.0000 </r>
       <r>    -8.6862     0.0000    12.0000 </r>
       <r>    -8.6042     0.0000    12.0000 </r>
       <r>    -8.5221     0.0000    12.0000 </r>
       <r>    -8.4401     0.0000    12.0000 </r>
       <r>    -8.3580     0.0000    12.0000 </r>
       <r>    -8.2760     0.0000    12.0000 </r>
       <r>    -8.1939     0.0000    12.0000 </r>
       <r>    -8.1119     0.0000    12.0000 </r>
       <r>    -8.0298     0.0000    12.0000 </r>
       <r>    -7.9478     0.0000    12.0000 </r>
       <r>    -7.8657     0.0000    12.0000 </r>
       <r>    -7.7837     0.0000    12.0000 </r>
       <r>    -7.7016     0.0000    12.0000 </r>
       <r>    -7.6196     0.0000    12.0000 </r>
       <r>    -7.5375     0.0000    12.0000 </r>
       <r>    -7.4555     0.0000    12.0000 </r>
       <r>    -7.3734     0.0000    12.0000 </r>
       <r>    -7.2914     0.0000    12.0000 </r>
       <r>    -7.2093     0.0000    12.0000 </r>
       <r>    -7.1273     0.0000    12.0000 </r>
       <r>    -7.0452     0.0000    12.0000 </r>
       <r>    -6.9632     0.0000    12.0000 </r>
       <r>    -6.8811     0.0000    12.0000 </r>
       <r>    -6.7991     0.0000    12.0000 </r>
       <r>    -6.7170     0.0000    12.0000 </r>
       <r>    -6.6350     0.0000    12.0000 </r>
       <r>    -6.5529     0.0000    12.0000 </r>
       <r>    -6.4709     0.0000    12.0000 </r>
       <r>    -6.3888     0.0000    12.0000 </r>
       <r>    -6.3068     0.0000    12.0000 </r>
       <r>    -6.2247     5.0932    12.4179 </r>
       <r>    -6.1426     7.3068    13.0177 </r>
       <r>    -6.0606     7.9293    13.6683 </r>
       <r>    -5.9785    12.0964    14.6608 </r>
       <r>    -5.8965     4.0625    15.0000 </r>
       <r>    -5.8144     0.0000    15.0000 </r>
       <r>    -5.7324     0.0000    15.0000 </r>
       <r>    -5.6503     0.0253    15.0021 </r>
       <r>    -5.5683     8.0997    15.6667 </r>
       <r>    -5.4862     0.3172    15.6927 </r>
       <r>    -5.4042     7.5530    16.3124 </r>
       <r>    -5.3221     7.7256    17.3329 </r>
       <r>    -5.2401     0.0000    17.3333 </r>
       <r>    -5.1580     0.0000    17.3333 </r>
       <r>    -5.0760     0.0000    17.3333 </r>
       <r>    -4.9939     0.0000    17.3333 </r>
       <r>    -4.9119     8.1250    18.0000 </r>
       <r>    -4.8298     0.0000    18.0000 </r>
       <r>    -4.7478     0.0000    18.0000 </r>
       <r>    -4.6657     0.0000    18.0000 </r>
       <r>    -4.5837     0.0000    18.0000 </r>
       <r>    -4.5016     0.0000    18.0000 </r>
       <r>    -4.4196     0.0000    18.0000 </r>
       <r>    -4.3375     0.0000    18.0000 </r>
       <r>    -4.2555     0.0007    18.0001 </r>
       <r>    -4.1734    12.1675    18.9984 </r>
       <r>    -4.0914     0.0000    19.0000 </r>
       <r>    -4.0093     5.8583    19.4807 </r>
       <r>    -3.9273     0.0000    19.6667 </r>
       <r>    -3.8452     4.0625    20.0000 </r>
       <r>    -3.7632     0.0000    20.0000 </r>
       <r>    -3.6811     0.0000    20.0000 </r>
       <r>    -3.5991     0.0000    20.0000 </r>
       <r>    -3.5170     0.0000    20.0000 </r>
       <r>    -3.4349     0.0000    20.0000 </r>
       <r>    -3.3529     0.0000    20.0000 </r>
       <r>    -3.2708     0.0000    20.0000 </r>
       <r>    -3.1888     0.0000    20.0000 </r>
       <r>    -3.1067     0.0000    20.0000 </r>
       <r>    -3.0247     0.0000    20.0000 </r>
       <r>    -2.9426     0.0000    20.0000 </r>
       <r>    -2.8606     0.0000    20.0000 </r>
       <r>    -2.7785     0.0000    20.0000 </r>
       <r>    -2.6965     0.0000    20.0000 </r>
       <r>    -2.6144     0.0000    20.0000 </r>
       <r>    -2.5324     0.0000    20.0000 </r>
       <r>    -2.4503     0.0000    20.0000 </r>
       <r>    -2.3683     0.0000    20.0000 </r>
       <r>    -2.2862     0.0000    20.0000 </r>
       <r>    -2.2042     0.0000    20.0000 </r>
       <r>    -2.1221     0.0000    20.0000 </r>
       <r>    -2.0401     0.0000    20.0000 </r>
       <r>    -1.9580     0.0000    20.0000 </r>
       <r>    -1.8760     0.0000    20.0000 </r>
       <r>    -1.7939     0.0000    20.0000 </r>
       <r>    -1.7119     0.0000    20.0000 </r>
       <r>    -1.6298     0.0000    20.0000 </r>
       <r>    -1.5478     0.0000    20.0000 </r>
       <r>    -1.4657     0.0000    20.0000 </r>
       <r>    -1.3837     0.0000    20.0000 </r>
       <r>    -1.3016     1.6399    20.1346 </r>
       <r>    -1.2196     1.7337    20.4756 </r>
       <r>    -1.1375    16.0066    21.9916 </r>
       <r>    -1.0555     0.0000    22.0000 </r>
       <r>    -0.9734     7.9885    22.6555 </r>
       <r>    -0.8914     0.0000    22.6667 </r>
       <r>    -0.8093     0.0000    22.6667 </r>
       <r>    -0.7273     0.0001    22.6667 </r>
       <r>    -0.6452    12.1874    23.6667 </r>
       <r>    -0.5631     3.8100    23.9793 </r>
       <r>    -0.4811     0.0000    24.0000 </r>
       <r>    -0.3990     0.0003    24.0000 </r>
       <r>    -0.3170     8.1421    24.6681 </r>
       <r>    -0.2349     4.0458    25.0001 </r>
       <r>    -0.1529     9.9273    25.8146 </r>
       <r>    -0.0708     4.0624    26.3333 </r>
       <r>     0.0112     1.2239    26.4338 </r>
       <r>     0.0933    19.1116    28.0019 </r>
       <r>     0.1753     8.1372    28.6698 </r>
       <r>     0.2574     4.0248    29.0000 </r>
       <r>     0.3394     0.0000    29.0000 </r>
       <r>     0.4215     8.1707    29.6704 </r>
       <r>     0.5035     3.4694    30.0000 </r>
       <r>     0.5856     0.0000    30.0000 </r>
       <r>     0.6676     4.0625    30.3333 </r>
       <r>     0.7497     7.3503    30.9364 </r>
       <r>     0.8317     8.2612    31.6778 </r>
       <r>     0.9138    12.2445    32.6825 </r>
       <r>     0.9958    14.9379    33.9999 </r>
       <r>     1.0779     6.2812    34.5154 </r>
       <r>     1.1599     4.0621    35.0000 </r>
       <r>     1.2420     4.0569    35.3329 </r>
       <r>     1.3240    24.3693    37.3333 </r>
       <r>     1.4061     0.0000    37.3333 </r>
       <r>     1.4881     0.0000    37.3333 </r>
       <r>     1.5702    16.2368    38.6656 </r>
       <r>     1.6522     9.9595    39.4839 </r>
       <r>     1.7343    13.5908    40.5990 </r>
       <r>     1.8163     0.2335    40.6858 </r>
       <r>     1.8984     3.8289    41.0000 </r>
       <r>     1.9804     0.0000    41.0000 </r>
       <r>     2.0625     0.0000    41.0000 </r>
       <r>     2.1446     8.4504    41.6934 </r>
       <r>     2.2266    15.3558    42.9533 </r>
       <r>     2.3087     0.0674    43.0055 </r>
       <r>     2.3907    11.9458    43.9857 </r>
       <r>     2.4728     3.1338    44.2571 </r>
       <r>     2.5548    17.1611    45.6652 </r>
       <r>     2.6369    12.6269    46.7027 </r>
       <r>     2.7189    20.4150    48.3778 </r>
       <r>     2.8010    19.6928    50.0000 </r>
       <r>     2.8830     0.0000    50.0000 </r>
       <r>     2.9651     0.0000    50.0000 </r>
       <r>     3.0471    12.1872    51.0000 </r>
       <r>     3.1292     0.0003    51.0000 </r>
       <r>     3.2112    12.1872    52.0000 </r>
       <r>     3.2933     0.0000    52.0000 </r>
       <r>     3.3753     0.0000    52.0000 </r>
       <r>     3.4574     0.5259    52.0431 </r>
       <r>     3.5394    11.6616    53.0000 </r>
       <r>     3.6215     8.1252    53.6667 </r>
       <r>     3.7035    16.2352    54.9988 </r>
       <r>     3.7856     4.0811    55.3352 </r>
       <r>     3.8676     8.1022    56.0000 </r>
       <r>     3.9497     0.0000    56.0000 </r>
       <r>     4.0317     0.0000    56.0000 </r>
       <r>     4.1138     0.0000    56.0000 </r>
       <r>     4.1958     0.0000    56.0000 </r>
       <r>     4.2779     0.0000    56.0000 </r>
       <r>     4.3599     0.0000    56.0000 </r>
       <r>     4.4420     0.0000    56.0000 </r>
       <r>     4.5240     0.0000    56.0000 </r>
       <r>     4.6061     0.0000    56.0000 </r>
       <r>     4.6881     0.0000    56.0000 </r>
       <r>     4.7702     0.0000    56.0000 </r>
       <r>     4.8522     0.0000    56.0000 </r>
       <r>     4.9343     0.0000    56.0000 </r>
       <r>     5.0164     0.0000    56.0000 </r>
       <r>     5.0984     7.4126    56.6082 </r>
       <r>     5.1805     0.0000    56.6667 </r>
       <r>     5.2625     8.1274    57.3335 </r>
       <r>     5.3446     4.0601    57.6667 </r>
       <r>     5.4266     4.0628    58.0000 </r>
       <r>     5.5087     4.0622    58.3333 </r>
       <r>     5.5907     1.6867    58.4717 </r>
       <r>     5.6728    10.5008    59.3333 </r>
       <r>     5.7548     0.0000    59.3333 </r>
       <r>     5.8369     0.0000    59.3333 </r>
       <r>     5.9189     0.0000    59.3333 </r>
       <r>     6.0010    12.6647    60.3725 </r>
       <r>     6.0830    11.7102    61.3333 </r>
       <r>     6.1651     0.0000    61.3333 </r>
       <r>     6.2471     0.0000    61.3333 </r>
       <r>     6.3292     0.0000    61.3333 </r>
       <r>     6.4112    16.0865    62.6533 </r>
       <r>     6.4933     5.8648    63.1479 </r>
       <r>     6.5753    26.8167    65.3482 </r>
       <r>     6.6574    12.5648    66.3980 </r>
       <r>     6.7394     4.9715    66.8060 </r>
       <r>     6.8215    14.9206    68.0303 </r>
       <r>     6.9035     0.0000    68.3333 </r>
       <r>     6.9856     4.0460    68.6653 </r>
       <r>     7.0676     4.6056    69.0446 </r>
       <r>     7.1497     7.5327    69.6626 </r>
       <r>     7.2317    15.5227    70.9466 </r>
       <r>     7.3138     3.9667    71.3255 </r>
       <r>     7.3958     4.2231    71.6814 </r>
       <r>     7.4779     7.9460    72.3333 </r>
       <r>     7.5599     8.0053    72.9902 </r>
       <r>     7.6420     2.6131    73.2144 </r>
       <r>     7.7241     8.1179    73.9994 </r>
       <r>     7.8061     0.0000    74.0000 </r>
       <r>     7.8882     4.0621    74.3333 </r>
       <r>     7.9702     0.0004    74.3334 </r>
       <r>     8.0523     8.6149    75.0402 </r>
       <r>     8.1343     7.6379    75.6669 </r>
       <r>     8.2164     4.0586    76.3330 </r>
       <r>     8.2984     0.0000    76.3333 </r>
       <r>     8.3805     8.1249    77.0000 </r>
       <r>     8.4625     0.0046    77.0004 </r>
       <r>     8.5446     8.1204    77.6667 </r>
       <r>     8.6266     8.1250    78.3333 </r>
       <r>     8.7087     3.8812    78.6518 </r>
       <r>     8.7907     0.0000    78.6667 </r>
       <r>     8.8728     3.8942    78.9862 </r>
       <r>     8.9548     7.8933    79.6477 </r>
       <r>     9.0369     4.6247    80.0464 </r>
       <r>     9.1189    10.9297    80.9432 </r>
       <r>     9.2010     7.2813    81.5974 </r>
       <r>     9.2830     0.0000    81.6667 </r>
       <r>     9.3651     0.0000    81.6667 </r>
       <r>     9.4471     4.0625    82.0000 </r>
       <r>     9.5292     0.0000    82.0000 </r>
       <r>     9.6112     0.0000    82.0000 </r>
       <r>     9.6933     0.0000    82.0000 </r>
       <r>     9.7753     0.0000    82.0000 </r>
       <r>     9.8574     0.0000    82.0000 </r>
       <r>     9.9394     0.0000    82.0000 </r>
       <r>    10.0215     0.0000    82.0000 </r>
       <r>    10.1035     0.0000    82.0000 </r>
       <r>    10.1856     0.0000    82.0000 </r>
       <r>    10.2676     0.0000    82.0000 </r>
       <r>    10.3497     0.0000    82.0000 </r>
       <r>    10.4317     0.0222    82.0018 </r>
       <r>    10.5138     4.6846    82.3862 </r>
       <r>    10.5959    15.6056    83.6667 </r>
       <r>    10.6779     0.0005    83.6667 </r>
       <r>    10.7600     4.0620    84.0000 </r>
       <r>    10.8420     0.0000    84.0000 </r>
[...]
        <r>  0.0014  0.0076  0.0002  0.0000  0.0000  0.0001  0.0002  0.0000  0.0007 </r>
        <r>  0.0006  0.0201  0.0128  0.0000  0.0000  0.0022  0.0008  0.0000  0.0011 </r>
        <r>  0.0008  0.0402  0.0005  0.0000  0.0000  0.0004  0.0004  0.0000  0.0002 </r>
        <r>  0.0013  0.0062  0.0126  0.0000  0.0000  0.0018  0.0005  0.0000  0.0010 </r>
        <r>  0.0015  0.0262  0.0003  0.0000  0.0000  0.0000  0.0001  0.0000  0.0000 </r>
        <r>  0.0046  0.0385  0.0001  0.0000  0.0000  0.0023  0.0000  0.0000  0.0004 </r>
        <r>  0.0013  0.0488  0.0045  0.0000  0.0000  0.0003  0.0003  0.0000  0.0000 </r>
        <r>  0.0035  0.0166  0.0002  0.0000  0.0000  0.0020  0.0002  0.0000  0.0004 </r>
        <r>  0.0002  0.0269  0.0046  0.0000  0.0000  0.0000  0.0004  0.0000  0.0000 </r>
        <r>  0.0034  0.0126  0.0001  0.0000  0.0000  0.0001  0.0006  0.0000  0.0030 </r>
        <r>  0.0074  0.0004  0.0025  0.0000  0.0000  0.0001  0.0000  0.0000  0.0006 </r>
        <r>  0.0009  0.0127  0.0007  0.0000  0.0000  0.0001  0.0008  0.0000  0.0024 </r>
        <r>  0.0050  0.0004  0.0031  0.0000  0.0000  0.0000  0.0002  0.0000  0.0000 </r>
        <r>  0.0011  0.0009  0.0018  0.0000  0.0000  0.0002  0.0000  0.0000  0.0009 </r>
        <r>  0.0013  0.0001  0.0070  0.0000  0.0000  0.0002  0.0009  0.0000  0.0011 </r>
        <r>  0.0024  0.0013  0.0056  0.0000  0.0000  0.0001  0.0001  0.0000  0.0019 </r>
        <r>  0.0025  0.0006  0.0109  0.0000  0.0000  0.0001  0.0009  0.0000  0.0021 </r>
       </set>
       <set comment="band 76">
        <r>  0.0014  0.0076  0.0002  0.0000  0.0000  0.0001  0.0002  0.0000  0.0007 </r>
        <r>  0.0007  0.0078  0.0422  0.0000  0.0000  0.0001  0.0001  0.0000  0.0012 </r>
        <r>  0.0024  0.0155  0.0077  0.0000  0.0000  0.0002  0.0004  0.0000  0.0002 </r>
        <r>  0.0017  0.0157  0.0498  0.0000  0.0000  0.0002  0.0003  0.0000  0.0007 </r>
        <r>  0.0015  0.0262  0.0003  0.0000  0.0000  0.0000  0.0001  0.0000  0.0000 </r>
        <r>  0.0013  0.0062  0.0126  0.0000  0.0000  0.0018  0.0005  0.0000  0.0010 </r>
        <r>  0.0008  0.0402  0.0005  0.0000  0.0000  0.0004  0.0004  0.0000  0.0002 </r>
        <r>  0.0006  0.0201  0.0128  0.0000  0.0000  0.0022  0.0008  0.0000  0.0011 </r>
        <r>  0.0002  0.0269  0.0046  0.0000  0.0000  0.0000  0.0004  0.0000  0.0000 </r>
        <r>  0.0035  0.0166  0.0002  0.0000  0.0000  0.0020  0.0002  0.0000  0.0004 </r>
        <r>  0.0013  0.0488  0.0045  0.0000  0.0000  0.0003  0.0003  0.0000  0.0000 </r>
        <r>  0.0046  0.0385  0.0001  0.0000  0.0000  0.0023  0.0000  0.0000  0.0004 </r>
        <r>  0.0050  0.0004  0.0031  0.0000  0.0000  0.0000  0.0002  0.0000  0.0000 </r>
        <r>  0.0009  0.0127  0.0007  0.0000  0.0000  0.0001  0.0008  0.0000  0.0024 </r>
        <r>  0.0074  0.0004  0.0025  0.0000  0.0000  0.0001  0.0000  0.0000  0.0006 </r>
        <r>  0.0034  0.0126  0.0001  0.0000  0.0000  0.0001  0.0006  0.0000  0.0030 </r>
        <r>  0.0025  0.0006  0.0109  0.0000  0.0000  0.0001  0.0009  0.0000  0.0021 </r>
        <r>  0.0024  0.0013  0.0056  0.0000  0.0000  0.0001  0.0001  0.0000  0.0019 </r>
        <r>  0.0013  0.0001  0.0070  0.0000  0.0000  0.0002  0.0009  0.0000  0.0011 </r>
        <r>  0.0011  0.0009  0.0018  0.0000  0.0000  0.0002  0.0000  0.0000  0.0009 </r>
       </set>
       <set comment="band 77">
        <r>  0.0000  0.0000  0.0000  0.0916  0.0000  0.0000  0.0000  0.0000  0.0000 </r>
        <r>  0.0000  0.0000  0.0000  0.0796  0.0000  0.0000  0.0000  0.0002  0.0000 </r>
        <r>  0.0000  0.0000  0.0000  0.0121  0.0000  0.0000  0.0000  0.0003  0.0000 </r>
        <r>  0.0000  0.0000  0.0000  0.0001  0.0000  0.0000  0.0000  0.0005  0.0000 </r>
        <r>  0.0000  0.0000  0.0000  0.0888  0.0001  0.0000  0.0000  0.0010  0.0000 </r>
        <r>  0.0000  0.0000  0.0000  0.0829  0.0000  0.0000  0.0000  0.0007  0.0000 </r>
        <r>  0.0000  0.0000  0.0000  0.0071  0.0001  0.0000  0.0000  0.0003  0.0000 </r>
        <r>  0.0000  0.0000  0.0000  0.0012  0.0001  0.0000  0.0000  0.0000  0.0000 </r>
        <r>  0.0000  0.0000  0.0000  0.0498  0.0003  0.0000  0.0000  0.0002  0.0000 </r>
        <r>  0.0000  0.0000  0.0000  0.0465  0.0005  0.0000  0.0000  0.0001  0.0000 </r>
        <r>  0.0000  0.0000  0.0000  0.0040  0.0001  0.0000  0.0000  0.0001  0.0000 </r>
        <r>  0.0000  0.0000  0.0000  0.0007  0.0003  0.0000  0.0000  0.0000  0.0000 </r>
        <r>  0.0000  0.0000  0.0000  0.0361  0.0026  0.0000  0.0000  0.0020  0.0000 </r>
        <r>  0.0000  0.0000  0.0000  0.0332  0.0024  0.0000  0.0000  0.0016  0.0000 </r>
        <r>  0.0000  0.0000  0.0000  0.0032  0.0002  0.0000  0.0000  0.0004  0.0000 </r>
        <r>  0.0000  0.0000  0.0000  0.0004  0.0000  0.0000  0.0000  0.0000  0.0000 </r>
        <r>  0.0000  0.0000  0.0000  0.0000  0.0001  0.0000  0.0000  0.0005  0.0000 </r>
        <r>  0.0000  0.0000  0.0000  0.0047  0.0001  0.0000  0.0000  0.0000  0.0000 </r>
        <r>  0.0000  0.0000  0.0000  0.0303  0.0015  0.0000  0.0000  0.0039  0.0000 </r>
        <r>  0.0000  0.0000  0.0000  0.0350  0.0015  0.0000  0.0000  0.0034  0.0000 </r>
       </set>
       <set comment="band 78">
        <r>  0.0000  0.0000  0.0000  0.0001  0.0000  0.0000  0.0000  0.0005  0.0000 </r>
        <r>  0.0000  0.0000  0.0000  0.0121  0.0000  0.0000  0.0000  0.0003  0.0000 </r>
        <r>  0.0000  0.0000  0.0000  0.0796  0.0000  0.0000  0.0000  0.0002  0.0000 </r>
        <r>  0.0000  0.0000  0.0000  0.0916  0.0000  0.0000  0.0000  0.0000  0.0000 </r>
        <r>  0.0000  0.0000  0.0000  0.0012  0.0001  0.0000  0.0000  0.0000  0.0000 </r>
        <r>  0.0000  0.0000  0.0000  0.0071  0.0001  0.0000  0.0000  0.0003  0.0000 </r>
        <r>  0.0000  0.0000  0.0000  0.0829  0.0000  0.0000  0.0000  0.0007  0.0000 </r>
        <r>  0.0000  0.0000  0.0000  0.0888  0.0001  0.0000  0.0000  0.0010  0.0000 </r>
        <r>  0.0000  0.0000  0.0000  0.0007  0.0003  0.0000  0.0000  0.0000  0.0000 </r>
        <r>  0.0000  0.0000  0.0000  0.0040  0.0001  0.0000  0.0000  0.0001  0.0000 </r>
        <r>  0.0000  0.0000  0.0000  0.0465  0.0005  0.0000  0.0000  0.0001  0.0000 </r>
        <r>  0.0000  0.0000  0.0000  0.0498  0.0003  0.0000  0.0000  0.0002  0.0000 </r>
        <r>  0.0000  0.0000  0.0000  0.0004  0.0000  0.0000  0.0000  0.0000  0.0000 </r>
        <r>  0.0000  0.0000  0.0000  0.0032  0.0002  0.0000  0.0000  0.0004  0.0000 </r>
        <r>  0.0000  0.0000  0.0000  0.0332  0.0024  0.0000  0.0000  0.0016  0.0000 </r>
        <r>  0.0000  0.0000  0.0000  0.0361  0.0026  0.0000  0.0000  0.0020  0.0000 </r>
        <r>  0.0000  0.0000  0.0000  0.0350  0.0015  0.0000  0.0000  0.0034  0.0000 </r>
        <r>  0.0000  0.0000  0.0000  0.0303  0.0015  0.0000  0.0000  0.0039  0.0000 </r>
        <r>  0.0000  0.0000  0.0000  0.0047  0.0001  0.0000  0.0000  0.0000  0.0000 </r>
        <r>  0.0000  0.0000  0.0000  0.0000  0.0001  0.0000  0.0000  0.0005  0.0000 </r>
       </set>
       <set comment="band 79">
        <r>  0.0028  0.0115  0.0189  0.0000  0.0000  0.0000  0.0008  0.0000  0.0027 </r>
        <r>  0.0008  0.0051  0.0159  0.0000  0.0000  0.0016  0.0013  0.0000  0.0011 </r>
        <r>  0.0043  0.0191  0.0358  0.0000  0.0000  0.0004  0.0019  0.0000  0.0019 </r>
        <r>  0.0023  0.0128  0.0328  0.0000  0.0000  0.0019  0.0023  0.0000  0.0003 </r>
        <r>  0.0000  0.0167  0.0114  0.0000  0.0000  0.0021  0.0001  0.0000  0.0001 </r>
        <r>  0.0020  0.0001  0.0028  0.0000  0.0000  0.0000  0.0007  0.0000  0.0001 </r>
        <r>  0.0002  0.0177  0.0173  0.0000  0.0000  0.0023  0.0000  0.0000  0.0001 </r>
        <r>  0.0023  0.0011  0.0087  0.0000  0.0000  0.0002  0.0005  0.0000  0.0001 </r>
        <r>  0.0070  0.0001  0.0194  0.0000  0.0000  0.0012  0.0000  0.0000  0.0008 </r>
        <r>  0.0006  0.0103  0.0167  0.0000  0.0000  0.0000  0.0008  0.0000  0.0017 </r>
        <r>  0.0094  0.0022  0.0371  0.0000  0.0000  0.0013  0.0003  0.0000  0.0003 </r>
        <r>  0.0030  0.0124  0.0344  0.0000  0.0000  0.0001  0.0010  0.0000  0.0012 </r>
        <r>  0.0032  0.0001  0.0166  0.0000  0.0000  0.0000  0.0008  0.0000  0.0008 </r>
        <r>  0.0014  0.0010  0.0010  0.0000  0.0000  0.0000  0.0001  0.0000  0.0009 </r>
        <r>  0.0053  0.0000  0.0218  0.0000  0.0000  0.0000  0.0011  0.0000  0.0004 </r>
        <r>  0.0036  0.0009  0.0063  0.0000  0.0000  0.0000  0.0005  0.0000  0.0005 </r>
        <r>  0.0007  0.0130  0.0001  0.0000  0.0000  0.0002  0.0007  0.0000  0.0001 </r>
        <r>  0.0000  0.0035  0.0113  0.0000  0.0000  0.0000  0.0004  0.0000  0.0007 </r>
        <r>  0.0007  0.0100  0.0025  0.0000  0.0000  0.0002  0.0004  0.0000  0.0000 </r>
        <r>  0.0000  0.0005  0.0136  0.0000  0.0000  0.0000  0.0002  0.0000  0.0006 </r>
       </set>
       <set comment="band 80">
        <r>  0.0023  0.0128  0.0328  0.0000  0.0000  0.0019  0.0023  0.0000  0.0003 </r>
        <r>  0.0043  0.0191  0.0358  0.0000  0.0000  0.0004  0.0019  0.0000  0.0019 </r>
        <r>  0.0008  0.0051  0.0159  0.0000  0.0000  0.0016  0.0013  0.0000  0.0011 </r>
        <r>  0.0028  0.0115  0.0189  0.0000  0.0000  0.0000  0.0008  0.0000  0.0027 </r>
        <r>  0.0023  0.0011  0.0087  0.0000  0.0000  0.0002  0.0005  0.0000  0.0001 </r>
        <r>  0.0002  0.0177  0.0173  0.0000  0.0000  0.0023  0.0000  0.0000  0.0001 </r>
        <r>  0.0020  0.0001  0.0028  0.0000  0.0000  0.0000  0.0007  0.0000  0.0001 </r>
        <r>  0.0000  0.0167  0.0114  0.0000  0.0000  0.0021  0.0001  0.0000  0.0001 </r>
        <r>  0.0030  0.0124  0.0344  0.0000  0.0000  0.0001  0.0010  0.0000  0.0012 </r>
        <r>  0.0094  0.0022  0.0371  0.0000  0.0000  0.0013  0.0003  0.0000  0.0003 </r>
        <r>  0.0006  0.0103  0.0167  0.0000  0.0000  0.0000  0.0008  0.0000  0.0017 </r>
        <r>  0.0070  0.0001  0.0194  0.0000  0.0000  0.0012  0.0000  0.0000  0.0008 </r>
        <r>  0.0036  0.0009  0.0063  0.0000  0.0000  0.0000  0.0005  0.0000  0.0005 </r>
        <r>  0.0053  0.0000  0.0218  0.0000  0.0000  0.0000  0.0011  0.0000  0.0004 </r>
        <r>  0.0014  0.0010  0.0010  0.0000  0.0000  0.0000  0.0001  0.0000  0.0009 </r>
        <r>  0.0032  0.0001  0.0166  0.0000  0.0000  0.0000  0.0008  0.0000  0.0008 </r>
        <r>  0.0000  0.0005  0.0136  0.0000  0.0000  0.0000  0.0002  0.0000  0.0006 </r>
        <r>  0.0007  0.0100  0.0025  0.0000  0.0000  0.0002  0.0004  0.0000  0.0000 </r>
        <r>  0.0000  0.0035  0.0113  0.0000  0.0000  0.0000  0.0004  0.0000  0.0007 </r>
        <r>  0.0007  0.0130  0.0001  0.0000  0.0000  0.0002  0.0007  0.0000  0.0001 </r>
       </set>
       <set comment="band 81">
        <r>  0.0000  0.0020  0.0035  0.0000  0.0000  0.0038  0.0002  0.0000  0.0204 </r>
        <r>  0.0002  0.0001  0.0005  0.0000  0.0000  0.0023  0.0004  0.0000  0.0136 </r>
        <r>  0.0001  0.0060  0.0039  0.0000  0.0000  0.0015  0.0000  0.0000  0.0072 </r>
        <r>  0.0003  0.0041  0.0009  0.0000  0.0000  0.0000  0.0002  0.0000  0.0004 </r>
        <r>  0.0000  0.0001  0.0074  0.0000  0.0000  0.0004  0.0011  0.0000  0.0023 </r>
        <r>  0.0006  0.0044  0.0005  0.0000  0.0000  0.0010  0.0002  0.0000  0.0028 </r>
        <r>  0.0010  0.0035  0.0101  0.0000  0.0000  0.0000  0.0012  0.0000  0.0002 </r>
        <r>  0.0016  0.0079  0.0032  0.0000  0.0000  0.0006  0.0002  0.0000  0.0007 </r>
        <r>  0.0001  0.0025  0.0005  0.0000  0.0000  0.0008  0.0017  0.0000  0.0125 </r>
        <r>  0.0012  0.0046  0.0008  0.0000  0.0000  0.0012  0.0008  0.0000  0.0147 </r>
        <r>  0.0004  0.0000  0.0039  0.0000  0.0000  0.0000  0.0010  0.0000  0.0012 </r>
        <r>  0.0015  0.0021  0.0043  0.0000  0.0000  0.0004  0.0000  0.0000  0.0034 </r>
        <r>  0.0000  0.0079  0.0000  0.0000  0.0000  0.0025  0.0001  0.0000  0.0063 </r>
        <r>  0.0003  0.0049  0.0056  0.0000  0.0000  0.0014  0.0003  0.0000  0.0028 </r>
        <r>  0.0007  0.0030  0.0073  0.0000  0.0000  0.0012  0.0000  0.0000  0.0036 </r>
        <r>  0.0009  0.0001  0.0129  0.0000  0.0000  0.0000  0.0003  0.0000  0.0001 </r>
        <r>  0.0004  0.0017  0.0051  0.0000  0.0000  0.0001  0.0000  0.0000  0.0001 </r>
        <r>  0.0000  0.0067  0.0020  0.0000  0.0000  0.0007  0.0000  0.0000  0.0000 </r>
        <r>  0.0010  0.0007  0.0032  0.0000  0.0000  0.0003  0.0000  0.0000  0.0001 </r>
        <r>  0.0006  0.0056  0.0001  0.0000  0.0000  0.0009  0.0000  0.0000  0.0000 </r>
       </set>
       <set comment="band 82">
        <r>  0.0003  0.0041  0.0009  0.0000  0.0000  0.0000  0.0002  0.0000  0.0004 </r>
        <r>  0.0001  0.0060  0.0039  0.0000  0.0000  0.0015  0.0000  0.0000  0.0072 </r>
        <r>  0.0002  0.0001  0.0005  0.0000  0.0000  0.0023  0.0004  0.0000  0.0136 </r>
        <r>  0.0000  0.0020  0.0035  0.0000  0.0000  0.0038  0.0002  0.0000  0.0204 </r>
        <r>  0.0016  0.0079  0.0032  0.0000  0.0000  0.0006  0.0002  0.0000  0.0007 </r>
        <r>  0.0010  0.0035  0.0101  0.0000  0.0000  0.0000  0.0012  0.0000  0.0002 </r>
        <r>  0.0006  0.0044  0.0005  0.0000  0.0000  0.0010  0.0002  0.0000  0.0028 </r>
        <r>  0.0000  0.0001  0.0074  0.0000  0.0000  0.0004  0.0011  0.0000  0.0023 </r>
        <r>  0.0015  0.0021  0.0043  0.0000  0.0000  0.0004  0.0000  0.0000  0.0034 </r>
        <r>  0.0004  0.0000  0.0039  0.0000  0.0000  0.0000  0.0010  0.0000  0.0012 </r>
        <r>  0.0012  0.0046  0.0008  0.0000  0.0000  0.0012  0.0008  0.0000  0.0147 </r>
        <r>  0.0001  0.0025  0.0005  0.0000  0.0000  0.0008  0.0017  0.0000  0.0125 </r>
        <r>  0.0009  0.0001  0.0129  0.0000  0.0000  0.0000  0.0003  0.0000  0.0001 </r>
        <r>  0.0007  0.0030  0.0073  0.0000  0.0000  0.0012  0.0000  0.0000  0.0036 </r>
        <r>  0.0003  0.0049  0.0056  0.0000  0.0000  0.0014  0.0003  0.0000  0.0028 </r>
        <r>  0.0000  0.0079  0.0000  0.0000  0.0000  0.0025  0.0001  0.0000  0.0063 </r>
        <r>  0.0006  0.0056  0.0001  0.0000  0.0000  0.0009  0.0000  0.0000  0.0000 </r>
        <r>  0.0010  0.0007  0.0032  0.0000  0.0000  0.0003  0.0000  0.0000  0.0001 </r>
        <r>  0.0000  0.0067  0.0020  0.0000  0.0000  0.0007  0.0000  0.0000  0.0000 </r>
        <r>  0.0004  0.0017  0.0051  0.0000  0.0000  0.0001  0.0000  0.0000  0.0001 </r>
       </set>
       <set comment="band 83">
        <r>  0.0008  0.0017  0.0038  0.0000  0.0000  0.0027  0.0030  0.0000  0.0021 </r>
        <r>  0.0003  0.0010  0.0043  0.0000  0.0000  0.0028  0.0009  0.0000  0.0053 </r>
        <r>  0.0006  0.0007  0.0005  0.0000  0.0000  0.0004  0.0023  0.0000  0.0002 </r>
        <r>  0.0001  0.0000  0.0010  0.0000  0.0000  0.0005  0.0002  0.0000  0.0035 </r>
        <r>  0.0002  0.0000  0.0013  0.0000  0.0000  0.0019  0.0015  0.0000  0.0194 </r>
        <r>  0.0002  0.0003  0.0054  0.0000  0.0000  0.0044  0.0003  0.0000  0.0214 </r>
        <r>  0.0000  0.0003  0.0008  0.0000  0.0000  0.0001  0.0016  0.0000  0.0026 </r>
        <r>  0.0001  0.0006  0.0049  0.0000  0.0000  0.0026  0.0004  0.0000  0.0046 </r>
        <r>  0.0006  0.0004  0.0004  0.0000  0.0000  0.0034  0.0024  0.0000  0.0100 </r>
        <r>  0.0004  0.0005  0.0005  0.0000  0.0000  0.0015  0.0030  0.0000  0.0084 </r>
        <r>  0.0002  0.0000  0.0025  0.0000  0.0000  0.0020  0.0002  0.0000  0.0024 </r>
        <r>  0.0000  0.0001  0.0026  0.0000  0.0000  0.0001  0.0009  0.0000  0.0009 </r>
        <r>  0.0014  0.0003  0.0046  0.0000  0.0000  0.0000  0.0000  0.0000  0.0005 </r>
        <r>  0.0009  0.0006  0.0027  0.0000  0.0000  0.0010  0.0001  0.0000  0.0019 </r>
        <r>  0.0006  0.0026  0.0019  0.0000  0.0000  0.0015  0.0000  0.0000  0.0003 </r>
        <r>  0.0000  0.0028  0.0001  0.0000  0.0000  0.0024  0.0001  0.0000  0.0017 </r>
        <r>  0.0001  0.0057  0.0000  0.0000  0.0000  0.0010  0.0010  0.0000  0.0010 </r>
        <r>  0.0002  0.0011  0.0003  0.0000  0.0000  0.0006  0.0016  0.0000  0.0004 </r>
        <r>  0.0006  0.0058  0.0001  0.0000  0.0000  0.0049  0.0000  0.0000  0.0039 </r>
        <r>  0.0008  0.0012  0.0004  0.0000  0.0000  0.0045  0.0006  0.0000  0.0033 </r>
       </set>
       <set comment="band 84">
        <r>  0.0001  0.0000  0.0010  0.0000  0.0000  0.0005  0.0002  0.0000  0.0035 </r>
        <r>  0.0006  0.0007  0.0005  0.0000  0.0000  0.0004  0.0023  0.0000  0.0002 </r>
        <r>  0.0003  0.0010  0.0043  0.0000  0.0000  0.0028  0.0009  0.0000  0.0053 </r>
        <r>  0.0008  0.0017  0.0038  0.0000  0.0000  0.0027  0.0030  0.0000  0.0021 </r>
        <r>  0.0001  0.0006  0.0049  0.0000  0.0000  0.0026  0.0004  0.0000  0.0046 </r>
        <r>  0.0000  0.0003  0.0008  0.0000  0.0000  0.0001  0.0016  0.0000  0.0026 </r>
        <r>  0.0002  0.0003  0.0054  0.0000  0.0000  0.0044  0.0003  0.0000  0.0214 </r>
        <r>  0.0002  0.0000  0.0013  0.0000  0.0000  0.0019  0.0015  0.0000  0.0194 </r>
        <r>  0.0000  0.0002  0.0026  0.0000  0.0000  0.0001  0.0009  0.0000  0.0009 </r>
        <r>  0.0002  0.0000  0.0025  0.0000  0.0000  0.0020  0.0002  0.0000  0.0024 </r>
        <r>  0.0004  0.0005  0.0005  0.0000  0.0000  0.0015  0.0030  0.0000  0.0084 </r>
        <r>  0.0006  0.0004  0.0004  0.0000  0.0000  0.0034  0.0024  0.0000  0.0100 </r>
        <r>  0.0000  0.0028  0.0001  0.0000  0.0000  0.0024  0.0001  0.0000  0.0017 </r>
        <r>  0.0006  0.0026  0.0019  0.0000  0.0000  0.0014  0.0000  0.0000  0.0003 </r>
        <r>  0.0009  0.0006  0.0027  0.0000  0.0000  0.0010  0.0001  0.0000  0.0019 </r>
        <r>  0.0014  0.0003  0.0046  0.0000  0.0000  0.0000  0.0000  0.0000  0.0005 </r>
        <r>  0.0008  0.0012  0.0004  0.0000  0.0000  0.0045  0.0006  0.0000  0.0033 </r>
        <r>  0.0006  0.0058  0.0001  0.0000  0.0000  0.0049  0.0000  0.0000  0.0039 </r>
        <r>  0.0002  0.0011  0.0003  0.0000  0.0000  0.0006  0.0016  0.0000  0.0004 </r>
        <r>  0.0001  0.0057  0.0000  0.0000  0.0000  0.0010  0.0010  0.0000  0.0010 </r>
       </set>
      </set>
     </set>
    </set>
   </array>
  </projected>
 </calculation>
 <structure name="finalpos" >
  <crystal>
   <varray name="basis" >
    <v>       4.00155687       0.00000000       0.00000000 </v>
    <v>      -0.00000000      11.71362971       0.00000000 </v>
    <v>       0.00000000       0.00000000      12.36207320 </v>
   </varray>
   <i name="volume">    579.44443382 </i>
   <varray name="rec_basis" >
    <v>       0.24990273       0.00000000       0.00000000 </v>
    <v>       0.00000000       0.08537063       0.00000000 </v>
    <v>      -0.00000000      -0.00000000       0.08089258 </v>
   </varray>
  </crystal>
  <varray name="positions" >
   <v>       0.75000000       0.03809460       0.14032237 </v>
   <v>       0.25000000       0.96190540       0.85967763 </v>
   <v>       0.25000000       0.53809460       0.35967763 </v>
   <v>       0.75000000       0.46190540       0.64032237 </v>
   <v>       0.25000000       0.32959138       0.03381284 </v>
   <v>       0.75000000       0.67040862       0.96618716 </v>
   <v>       0.75000000       0.82959138       0.46618716 </v>
   <v>       0.25000000       0.17040862       0.53381284 </v>
   <v>       0.75000000       0.12752536       0.94834520 </v>
   <v>       0.25000000       0.87247464       0.05165480 </v>
   <v>       0.25000000       0.62752536       0.55165480 </v>
   <v>       0.75000000       0.37247464       0.44834520 </v>
   <v>       0.25000000       0.19210067       0.20533132 </v>
   <v>       0.75000000       0.80789933       0.79466868 </v>
   <v>       0.75000000       0.69210067       0.29466868 </v>
   <v>       0.25000000       0.30789933       0.70533132 </v>
   <v>       0.75000000       0.05409869       0.62734915 </v>
   <v>       0.25000000       0.94590131       0.37265085 </v>
   <v>       0.25000000       0.55409869       0.87265085 </v>
   <v>       0.75000000       0.44590131       0.12734915 </v>
  </varray>
 </structure>
</modeling>
