<?xml version="1.0" encoding="ISO-8859-1"?>
<modeling>
 <generator>
  <i name="program" type="string">vasp </i>
  <i name="version" type="string">6.4.2  </i>
  <i name="subversion" type="string">20Jul23 (build Mar 15 2024 16:31:38) complex                          parallel </i>
  <i name="platform" type="string">LinuxIFC </i>
  <i name="date" type="string">2025 03 27 </i>
  <i name="time" type="string">15:37:30 </i>
 </generator>
 <incar>
  <i type="string" name="PREC">Accurate</i>
  <i type="string" name="ALGO">Fast</i>
  <i type="int" name="ISPIN">     1</i>
  <i type="int" name="ICHARG">    11</i>
  <i type="int" name="NELM">   200</i>
  <i name="EDIFF">      0.00001000</i>
  <i type="int" name="NSW">     0</i>
  <i type="int" name="ISYM">     2</i>
  <i name="ENCUT">    680.00000000</i>
  <i name="ENAUG">   1360.00000000</i>
  <i type="int" name="NBANDS">    29</i>
  <i type="int" name="NEDOS">  1897</i>
  <i type="logical" name="LREAL"> F  </i>
  <i type="int" name="ISMEAR">    -5</i>
  <i name="SIGMA">      0.05000000</i>
  <i type="int" name="LMAXMIX">     4</i>
  <i type="logical" name="LWAVE"> F  </i>
  <i type="logical" name="LCHARG"> F  </i>
  <i type="logical" name="LVTOT"> T  </i>
  <i type="int" name="LORBIT">    11</i>
  <i type="logical" name="LELF"> F  </i>
  <i type="logical" name="LASPH"> T  </i>
  <i type="logical" name="LAECHG"> T  </i>
  <i type="string" name="GGA">Ps</i>
  <i type="logical" name="LMIXTAU"> T  </i>
 </incar>
 <primitive_cell>
  <structure name="primitive_cell" >
   <crystal>
    <varray name="basis" >
     <v>       3.61541800       0.00000000       2.08736254 </v>
     <v>       1.20513900       3.40864864       2.08736254 </v>
     <v>       0.00000000       0.00000000       4.17472507 </v>
    </varray>
    <i name="volume">     51.44801605 </i>
    <varray name="rec_basis" >
     <v>       0.27659319      -0.09779044       0.00000000 </v>
     <v>       0.00000000       0.29337139       0.00000000 </v>
     <v>      -0.13829660      -0.09779048       0.23953673 </v>
    </varray>
   </crystal>
   <varray name="positions" >
    <v>       0.00000000       0.00000000       0.00000000 </v>
    <v>       0.25000000       0.25000000       0.25000000 </v>
   </varray>
  </structure>
  <varray name="primitive_index" >
   <v type="int" >        1 </v>
   <v type="int" >        2 </v>
  </varray>
 </primitive_cell>
 <kpoints>
  <generation param="Gamma">
   <v type="int" name="divisions">       7        7        7 </v>
   <v name="usershift">      0.00000000       0.00000000       0.00000000 </v>
   <v name="genvec1">      0.14285714      -0.00000000       0.00000000 </v>
   <v name="genvec2">      0.00000000       0.14285714       0.00000000 </v>
   <v name="genvec3">      0.00000000       0.00000000       0.14285714 </v>
   <v name="shift">      0.00000000       0.00000000       0.00000000 </v>
  </generation>
  <varray name="kpointlist" >
   <v>       0.00000000       0.00000000       0.00000000 </v>
   <v>       0.14285714      -0.00000000       0.00000000 </v>
   <v>       0.28571429      -0.00000000       0.00000000 </v>
   <v>       0.42857143      -0.00000000       0.00000000 </v>
   <v>       0.14285714       0.14285714       0.00000000 </v>
   <v>       0.28571429       0.14285714       0.00000000 </v>
   <v>       0.42857143       0.14285714       0.00000000 </v>
   <v>      -0.42857143       0.14285714       0.00000000 </v>
   <v>      -0.28571429       0.14285714       0.00000000 </v>
   <v>      -0.14285714       0.14285714       0.00000000 </v>
   <v>       0.28571429       0.28571429       0.00000000 </v>
   <v>       0.42857143       0.28571429       0.00000000 </v>
   <v>      -0.42857143       0.28571429       0.00000000 </v>
   <v>      -0.28571429       0.28571429       0.00000000 </v>
   <v>       0.42857143       0.42857143       0.00000000 </v>
   <v>      -0.42857143       0.42857143       0.00000000 </v>
   <v>       0.42857143       0.28571429       0.14285714 </v>
   <v>      -0.42857143       0.28571429       0.14285714 </v>
   <v>      -0.42857143       0.42857143       0.14285714 </v>
   <v>      -0.28571429       0.42857143       0.14285714 </v>
  </varray>
  <varray name="weights" >
   <v>       0.00291545 </v>
   <v>       0.02332362 </v>
   <v>       0.02332362 </v>
   <v>       0.02332362 </v>
   <v>       0.01749271 </v>
   <v>       0.06997085 </v>
   <v>       0.06997085 </v>
   <v>       0.06997085 </v>
   <v>       0.06997085 </v>
   <v>       0.03498542 </v>
   <v>       0.01749271 </v>
   <v>       0.06997085 </v>
   <v>       0.06997085 </v>
   <v>       0.03498542 </v>
   <v>       0.01749271 </v>
   <v>       0.03498542 </v>
   <v>       0.06997085 </v>
   <v>       0.13994169 </v>
   <v>       0.06997085 </v>
   <v>       0.06997085 </v>
  </varray>
  <varray name="tetrahedronlist"  type="int" >
   <v type="int" >       48        2        3        6       10 </v>
   <v type="int" >       48        6        9       10       17 </v>
   <v type="int" >       24        9        9       10       17 </v>
   <v type="int" >       48        3        6        9       10 </v>
   <v type="int" >       48        9       14       17       18 </v>
   <v type="int" >       48        8        9       14       18 </v>
   <v type="int" >       24        9        9       14       17 </v>
   <v type="int" >       48        8       13       18       18 </v>
   <v type="int" >       48        7        8       13       18 </v>
   <v type="int" >       48        8       13       14       18 </v>
   <v type="int" >       48        7       12       17       18 </v>
   <v type="int" >       48        6        7       12       17 </v>
   <v type="int" >       48        7       12       13       18 </v>
   <v type="int" >       24        6        6       11       17 </v>
   <v type="int" >       24        5        6        6       11 </v>
   <v type="int" >       48        6       11       12       17 </v>
   <v type="int" >       24        5        6        6       10 </v>
   <v type="int" >       48        2        5        6       10 </v>
   <v type="int" >       48        6        7        9       17 </v>
   <v type="int" >       48        3        6        7        9 </v>
   <v type="int" >       48       12       17       18       19 </v>
   <v type="int" >       24       17       18       18       19 </v>
   <v type="int" >       24       14       17       18       18 </v>
   <v type="int" >       48        7        9       17       18 </v>
   <v type="int" >       48       18       19       20       20 </v>
   <v type="int" >       24       18       18       20       20 </v>
   <v type="int" >       48       13       18       18       20 </v>
   <v type="int" >       24       18       18       19       20 </v>
   <v type="int" >       24       14       18       18       20 </v>
   <v type="int" >       48       13       14       18       20 </v>
   <v type="int" >       48       13       18       19       20 </v>
   <v type="int" >       48       12       13       18       19 </v>
   <v type="int" >       24       12       12       17       19 </v>
   <v type="int" >       24       11       12       12       17 </v>
   <v type="int" >       24        6        6       10       17 </v>
   <v type="int" >       48       12       13       16       19 </v>
   <v type="int" >       24       16       19       19       20 </v>
   <v type="int" >       12       19       19       20       20 </v>
   <v type="int" >       24       19       20       20       20 </v>
   <v type="int" >       48       13       16       19       20 </v>
   <v type="int" >        6       20       20       20       20 </v>
   <v type="int" >       48        7        8        8       18 </v>
   <v type="int" >       48        7        8        9       18 </v>
   <v type="int" >       24       13       13       16       20 </v>
   <v type="int" >       24        8        8       18       18 </v>
   <v type="int" >       24        2        2        5       10 </v>
   <v type="int" >       48        3        4        7        9 </v>
   <v type="int" >       48        4        7        8        9 </v>
   <v type="int" >       24       13       13       14       20 </v>
   <v type="int" >       24       12       12       15       19 </v>
   <v type="int" >       24       11       12       12       15 </v>
   <v type="int" >       48       12       15       16       19 </v>
   <v type="int" >       48        4        7        8        8 </v>
   <v type="int" >       12       16       16       19       19 </v>
   <v type="int" >       24       15       16       16       19 </v>
   <v type="int" >       24        4        4        8        8 </v>
   <v type="int" >       12       15       15       16       16 </v>
   <v type="int" >       24        1        2        2        5 </v>
  </varray>
  <i name="volumeweight">      0.00048591 </i>
 </kpoints>
 <parameters>
  <separator name="general" >
   <i type="string" name="SYSTEM">unknown system</i>
   <i type="logical" name="LCOMPAT"> F  </i>
  </separator>
  <separator name="electronic" >
   <i type="string" name="PREC">accura</i>
   <i name="ENMAX">    680.00000000</i>
   <i name="ENAUG">   1360.00000000</i>
   <i name="EDIFF">      0.00001000</i>
   <i type="int" name="IALGO">    68</i>
   <i type="int" name="IWAVPR">    10</i>
   <i type="int" name="NBANDS">    36</i>
   <i type="int" name="NBANDSLOW">    -1</i>
   <i type="int" name="NBANDSHIGH">    -1</i>
   <i name="NELECT">     18.00000000</i>
   <i type="int" name="TURBO">     0</i>
   <i type="int" name="IRESTART">     0</i>
   <i type="int" name="NREBOOT">     0</i>
   <i type="int" name="NMIN">     0</i>
   <i name="EREF">      0.00000000</i>
   <separator name="electronic smearing" >
    <i type="int" name="ISMEAR">    -5</i>
    <i name="SIGMA">      0.05000000</i>
    <i name="KSPACING">      0.50000000</i>
    <i type="logical" name="KGAMMA"> T  </i>
    <i type="logical" name="KBLOWUP"> T  </i>
   </separator>
   <separator name="electronic projectors" >
    <i type="logical" name="LREAL"> F  </i>
    <v name="ROPT">      0.00000000      0.00000000</v>
    <i type="int" name="LMAXPAW">  -100</i>
    <i type="int" name="LMAXMIX">     4</i>
    <i type="logical" name="NLSPLINE"> F  </i>
   </separator>
   <separator name="electronic startup" >
    <i type="int" name="ISTART">     0</i>
    <i type="int" name="ICHARG">    11</i>
    <i type="int" name="INIWAV">     1</i>
   </separator>
   <separator name="electronic spin" >
    <i type="int" name="ISPIN">     1</i>
    <i type="logical" name="LNONCOLLINEAR"> F  </i>
    <v name="MAGMOM">      1.00000000      1.00000000</v>
    <i name="NUPDOWN">     -1.00000000</i>
    <i type="logical" name="LSORBIT"> F  </i>
    <v name="SAXIS">      0.00000000      0.00000000      1.00000000</v>
    <i type="logical" name="LSPIRAL"> F  </i>
    <v name="QSPIRAL">      0.00000000      0.00000000      0.00000000</v>
    <i type="logical" name="LZEROZ"> F  </i>
   </separator>
   <separator name="electronic exchange-correlation" >
    <i type="logical" name="LASPH"> T  </i>
    <i type="logical" name="LMETAGGA"> F  </i>
   </separator>
   <separator name="electronic convergence" >
    <i type="int" name="NELM">   200</i>
    <i type="int" name="NELMDL">    -5</i>
    <i type="int" name="NELMIN">     2</i>
    <i name="ENINI">    680.00000000</i>
    <separator name="electronic convergence detail" >
     <i type="logical" name="LDIAG"> T  </i>
     <i type="logical" name="LSUBROT"> F  </i>
     <i name="WEIMIN">      0.00000000</i>
     <i name="EBREAK">      0.00000007</i>
     <i name="DEPER">      0.30000000</i>
     <i type="int" name="NRMM">     4</i>
     <i name="TIME">      0.40000000</i>
    </separator>
   </separator>
   <separator name="electronic mixer" >
    <i name="AMIX">      0.40000000</i>
    <i name="BMIX">      1.00000000</i>
    <i name="AMIN">      0.10000000</i>
    <i name="AMIX_MAG">      1.60000000</i>
    <i name="BMIX_MAG">      1.00000000</i>
    <separator name="electronic mixer details" >
     <i type="int" name="IMIX">     4</i>
     <i type="logical" name="MIXFIRST"> F  </i>
     <i type="int" name="MAXMIX">   -45</i>
     <i name="WC">    100.00000000</i>
     <i type="int" name="INIMIX">     1</i>
     <i type="int" name="MIXPRE">     1</i>
     <i type="int" name="MREMOVE">     5</i>
    </separator>
   </separator>
   <separator name="electronic dipolcorrection" >
    <i type="logical" name="LDIPOL"> F  </i>
    <i type="logical" name="LMONO"> F  </i>
    <i type="int" name="IDIPOL">     0</i>
    <i name="EPSILON">      1.00000000</i>
    <v name="DIPOL">   -100.00000000   -100.00000000   -100.00000000</v>
    <i name="EFIELD">      0.00000000</i>
   </separator>
  </separator>
  <separator name="grids" >
   <i type="int" name="NGX">    36</i>
   <i type="int" name="NGY">    36</i>
   <i type="int" name="NGZ">    36</i>
   <i type="int" name="NGXF">    72</i>
   <i type="int" name="NGYF">    72</i>
   <i type="int" name="NGZF">    72</i>
   <i type="logical" name="ADDGRID"> F  </i>
  </separator>
  <separator name="ionic" >
   <i type="int" name="NSW">     0</i>
   <i type="int" name="IBRION">    -1</i>
   <i type="int" name="MDALGO">     0</i>
   <i type="int" name="ISIF">     2</i>
   <i name="PSTRESS">      0.00000000</i>
   <i name="EDIFFG">      0.00010000</i>
   <i type="int" name="NFREE">     0</i>
   <i name="POTIM">      0.50000000</i>
   <i name="SMASS">     -3.00000000</i>
   <i name="SCALEE">      1.00000000</i>
  </separator>
  <separator name="ionic md" >
   <i name="TEBEG">      0.00010000</i>
   <i name="TEEND">      0.00010000</i>
   <i type="int" name="NBLOCK">     1</i>
   <i type="int" name="KBLOCK">     1</i>
   <i type="int" name="NPACO">   256</i>
   <i name="APACO">     10.00000000</i>
  </separator>
  <separator name="symmetry" >
   <i type="int" name="ISYM">     2</i>
   <i name="SYMPREC">      0.00001000</i>
  </separator>
  <separator name="dos" >
   <i type="int" name="LORBIT">    11</i>
   <v name="RWIGS">     -1.00000000     -1.00000000</v>
   <i type="int" name="NEDOS">  1897</i>
   <i name="EMIN">     10.00000000</i>
   <i name="EMAX">    -10.00000000</i>
   <i name="EFERMI">      0.00000000</i>
  </separator>
  <separator name="writing" >
   <i type="int" name="NWRITE">     2</i>
   <i type="logical" name="LWAVE"> F  </i>
   <i type="logical" name="LDOWNSAMPLE"> F  </i>
   <i type="logical" name="LCHARG"> F  </i>
   <i type="logical" name="LPARD"> F  </i>
   <i type="logical" name="LVTOT"> T  </i>
   <i type="logical" name="LVHAR"> F  </i>
   <i type="logical" name="LELF"> F  </i>
   <i type="logical" name="LOPTICS"> F  </i>
   <v name="STM">      0.00000000      0.00000000      0.00000000      0.00000000      0.00000000      0.00000000      0.00000000</v>
  </separator>
  <separator name="performance" >
   <i type="int" name="NPAR">    12</i>
   <i type="int" name="NSIM">     4</i>
   <i type="int" name="NBLK">    -1</i>
   <i type="logical" name="LPLANE"> T  </i>
   <i type="logical" name="LSCALAPACK"> T  </i>
   <i type="logical" name="LSCAAWARE"> T  </i>
   <i type="logical" name="LSCALU"> F  </i>
   <i type="logical" name="LASYNC"> F  </i>
   <i type="logical" name="LORBITALREAL"> F  </i>
  </separator>
  <separator name="miscellaneous" >
   <i type="int" name="IDIOT">     3</i>
   <i type="int" name="PHON_NSTRUCT">    -1</i>
   <i type="logical" name="LMUSIC"> F  </i>
   <v name="POMASS">    114.82000000     30.97400000</v>
   <v name="DARWINR">      0.00000000      0.00000000</v>
   <v name="DARWINV">      1.00000000      1.00000000</v>
   <i type="logical" name="LCORR"> T  </i>
  </separator>
  <i type="logical" name="GGA_COMPAT"> T  </i>
  <i type="logical" name="LBERRY"> F  </i>
  <i type="int" name="ICORELEVEL">     0</i>
  <i type="logical" name="LDAU"> F  </i>
  <i type="int" name="I_CONSTRAINED_M">     0</i>
  <separator name="electronic exchange-correlation" >
   <i type="string" name="GGA">PS</i>
   <i type="int" name="VOSKOWN">     0</i>
   <i type="logical" name="LHFCALC"> F  </i>
   <i type="string" name="PRECFOCK"></i>
   <i type="logical" name="LSYMGRAD"> F  </i>
   <i type="logical" name="LHFONE"> F  </i>
   <i type="logical" name="LRHFCALC"> F  </i>
   <i type="logical" name="LTHOMAS"> F  </i>
   <i type="logical" name="LMODELHF"> F  </i>
   <i type="logical" name="LFOCKACE"> F  </i>
   <i name="ENCUT4O">     -1.00000000</i>
   <i type="int" name="EXXOEP">     0</i>
   <i type="int" name="FOURORBIT">     0</i>
   <i name="AEXX">      0.00000000</i>
   <i name="HFALPHA">      0.00000000</i>
   <i name="MCALPHA">      0.00000000</i>
   <i name="ALDAX">      1.00000000</i>
   <i name="AGGAX">      1.00000000</i>
   <i name="ALDAC">      1.00000000</i>
   <i name="AGGAC">      1.00000000</i>
   <i type="int" name="NKREDX">     1</i>
   <i type="int" name="NKREDY">     1</i>
   <i type="int" name="NKREDZ">     1</i>
   <i type="logical" name="SHIFTRED"> F  </i>
   <i type="logical" name="ODDONLY"> F  </i>
   <i type="logical" name="EVENONLY"> F  </i>
   <i type="int" name="LMAXFOCK">     0</i>
   <i type="int" name="NMAXFOCKAE">     0</i>
   <i type="logical" name="LFOCKAEDFT"> F  </i>
   <i name="HFSCREEN">      0.00000000</i>
   <i name="HFSCREENC">      0.00000000</i>
   <i type="int" name="NBANDSGWLOW">     0</i>
  </separator>
  <separator name="vdW DFT" >
   <i type="logical" name="LUSE_VDW"> F  </i>
   <i type="int" name="IVDW_NL">     1</i>
   <i type="logical" name="LSPIN_VDW"> F  </i>
   <i name="Zab_VDW">     -0.84910000</i>
   <i name="PARAM1">      0.12340000</i>
   <i name="PARAM2">      1.00000000</i>
   <i name="PARAM3">      0.00000000</i>
  </separator>
  <separator name="model GW" >
   <i type="int" name="MODEL_GW">     0</i>
   <i name="MODEL_EPS0">     15.43440481</i>
   <i name="MODEL_ALPHA">      1.00000000</i>
  </separator>
  <separator name="linear response parameters" >
   <i type="logical" name="LEPSILON"> F  </i>
   <i type="logical" name="LRPA"> F  </i>
   <i type="logical" name="LNABLA"> F  </i>
   <i type="logical" name="LVEL"> F  </i>
   <i name="CSHIFT">      0.10000000</i>
   <i name="OMEGAMAX">     -1.00000000</i>
   <i name="DEG_THRESHOLD">      0.00200000</i>
   <i name="RTIME">     -0.10000000</i>
   <i name="WPLASMAI">      0.00000000</i>
   <v name="DFIELD">      0.00000000      0.00000000      0.00000000</v>
   <v name="WPLASMA">      0.00000000      0.00000000      0.00000000      0.00000000      0.00000000      0.00000000      0.00000000      0.00000000      0.00000000</v>
  </separator>
  <separator name="orbital magnetization" >
   <i type="logical" name="NUCIND"> F  </i>
   <v name="MAGPOS">      0.00000000      0.00000000      0.00000000</v>
   <i type="logical" name="LNICSALL"> T  </i>
   <i type="logical" name="ORBITALMAG"> F  </i>
   <i type="logical" name="LMAGBLOCH"> F  </i>
   <i type="logical" name="LCHIMAG"> F  </i>
   <i type="logical" name="LGAUGE"> T  </i>
   <i type="int" name="MAGATOM">     0</i>
   <v name="MAGDIPOL">      0.00000000      0.00000000      0.00000000</v>
   <v name="AVECCONST">      0.00000000      0.00000000      0.00000000</v>
  </separator>
  <separator name="response functions" >
   <i type="logical" name="LALL_IN_ONE"> F  </i>
   <i type="int" name="IALL_IN_ONE">    -1</i>
   <i type="int" name="NBANDS_WAVE">    -1</i>
   <i type="logical" name="LFINITE_TEMPERATURE"> F  </i>
   <i type="logical" name="LADDER"> F  </i>
   <i type="logical" name="LRPAFORCE"> F  </i>
   <i type="logical" name="LFXC"> F  </i>
   <i type="logical" name="LHARTREE"> T  </i>
   <i type="int" name="IBSE">     0</i>
   <v type="int" name="KPOINT">    -1     0     0     0</v>
   <i type="logical" name="LTCTC"> F  </i>
   <i type="logical" name="LTCTE"> F  </i>
   <i type="logical" name="LTETE"> F  </i>
   <i type="logical" name="LTRIPLET"> F  </i>
   <i type="logical" name="LFXCEPS"> F  </i>
   <i type="logical" name="LFXHEG"> F  </i>
   <i type="int" name="NATURALO">     2</i>
   <i type="logical" name="LHOLEGF"> F  </i>
   <i type="logical" name="L2ORDER"> F  </i>
   <i type="logical" name="LDMP1"> F  </i>
   <i type="logical" name="LMP2LT"> F  </i>
   <i type="logical" name="LSMP2LT"> F  </i>
   <i type="logical" name="LGWLF"> F  </i>
   <i name="ENCUTGW">     -1.60000002</i>
   <i name="ENCUTGWSOFT">     -1.60000002</i>
   <i name="ENCUTLF">     -1.00000000</i>
   <i type="logical" name="LESF_SPLINES"> F  </i>
   <i type="int" name="LMAXMP2">    -1</i>
   <i name="SCISSOR">      0.00000000</i>
   <i type="int" name="NOMEGA">     0</i>
   <i type="int" name="NOMEGAR">     0</i>
   <i type="int" name="NBANDSGW">    -1</i>
   <i type="int" name="NBANDSO">    -1</i>
   <i type="int" name="NBANDSV">    -1</i>
   <i type="int" name="NELMGW">     1</i>
   <i type="int" name="NELMHF">     1</i>
   <i type="int" name="DIM">     3</i>
   <i type="int" name="IESPILON">     4</i>
   <i type="int" name="ANTIRES">     0</i>
   <i name="OMEGAMAX">    -30.00000000</i>
   <i name="OMEGAMIN">    -30.00000000</i>
   <i name="OMEGATL">   -200.00000000</i>
   <i type="int" name="OMEGAGRID">     0</i>
   <i name="CSHIFT">     -0.10000000</i>
   <i type="logical" name="LSELFENERGY"> F  </i>
   <i type="logical" name="LSPECTRAL"> F  </i>
   <i type="logical" name="LSPECTRALGW"> F  </i>
   <i type="logical" name="LSINGLES"> F  </i>
   <i type="logical" name="LFERMIGW"> F  </i>
   <i type="logical" name="ODDONLYGW"> F  </i>
   <i type="logical" name="EVENONLYGW"> F  </i>
   <i type="int" name="NKREDLFX">     1</i>
   <i type="int" name="NKREDLFY">     1</i>
   <i type="int" name="NKREDLFZ">     1</i>
   <i type="int" name="MAXMEM">  2800</i>
   <i type="int" name="TELESCOPE">     0</i>
   <i type="int" name="NTAUPAR">    -1</i>
   <i type="int" name="NOMEGAPAR">    -1</i>
   <i name="DAMP_NEWTON">      0.80000001</i>
   <i name="LAMBDA">      1.00000000</i>
  </separator>
  <separator name="External order field" >
   <i name="OFIELD_KAPPA">      0.00000000</i>
   <v name="OFIELD_K">      0.00000000      0.00000000      0.00000000</v>
   <i name="OFIELD_Q6_NEAR">      0.00000000</i>
   <i name="OFIELD_Q6_FAR">      0.00000000</i>
   <i name="OFIELD_A">      0.00000000</i>
  </separator>
  <separator name="optional k-points parameters" >
   <i type="int" name="KPOINTS_OPT_MODE">     1</i>
   <i type="logical" name="LKPOINTS_OPT"> F  </i>
  </separator>
 </parameters>
 <atominfo>
  <atoms>       2 </atoms>
  <types>       2 </types>
  <array name="atoms" >
   <dimension dim="1">ion</dimension>
   <field type="string">element</field>
   <field type="int">atomtype</field>
   <set>
    <rc><c>In</c><c>   1</c></rc>
    <rc><c>P </c><c>   2</c></rc>
   </set>
  </array>
  <array name="atomtypes" >
   <dimension dim="1">type</dimension>
   <field type="int">atomspertype</field>
   <field type="string">element</field>
   <field>mass</field>
   <field>valence</field>
   <field type="string">pseudopotential</field>
   <set>
    <rc><c>   1</c><c>In</c><c>    114.82000000</c><c>     13.00000000</c><c>  PAW_PBE In_d 06Sep2000                </c></rc>
    <rc><c>   1</c><c>P </c><c>     30.97400000</c><c>      5.00000000</c><c>  PAW_PBE P 06Sep2000                   </c></rc>
   </set>
  </array>
 </atominfo>
 <structure name="initialpos" >
  <crystal>
   <varray name="basis" >
    <v>       3.61541800       0.00000000       2.08736254 </v>
    <v>       1.20513900       3.40864864       2.08736254 </v>
    <v>       0.00000000       0.00000000       4.17472507 </v>
   </varray>
   <i name="volume">     51.44801605 </i>
   <varray name="rec_basis" >
    <v>       0.27659319      -0.09779044       0.00000000 </v>
    <v>       0.00000000       0.29337139       0.00000000 </v>
    <v>      -0.13829660      -0.09779048       0.23953673 </v>
   </varray>
  </crystal>
  <varray name="positions" >
   <v>       0.00000000       0.00000000       0.00000000 </v>
   <v>       0.25000000       0.25000000       0.25000000 </v>
  </varray>
 </structure>
 <calculation>
  <scstep>
   <time name="dav">    0.25    0.26</time>
   <time name="total">    0.40    0.41</time>
   <energy>
    <i name="alphaZ">     31.71721604 </i>
    <i name="ewald">  -1211.83925518 </i>
    <i name="hartreedc">   -553.71043448 </i>
    <i name="XCdc">     46.28204792 </i>
    <i name="pawpsdc">   2565.40182983 </i>
    <i name="pawaedc">  -2549.28625701 </i>
    <i name="eentropy">      0.00000000 </i>
    <i name="bandstr">     65.15992553 </i>
    <i name="atom">   1751.84042551 </i>
    <i name="e_fr_energy">    145.56549817 </i>
    <i name="e_wo_entrp">    145.56549817 </i>
    <i name="e_0_energy">    145.56549817 </i>
   </energy>
  </scstep>
  <scstep>
   <time name="dav">    0.22    0.23</time>
   <time name="total">    0.23    0.23</time>
   <energy>
    <i name="e_fr_energy">      6.82563598 </i>
    <i name="e_wo_entrp">      6.82563598 </i>
    <i name="e_0_energy">      6.82563598 </i>
   </energy>
  </scstep>
  <scstep>
   <time name="dav">    0.24    0.26</time>
   <time name="total">    0.25    0.27</time>
   <energy>
    <i name="e_fr_energy">     -8.77870215 </i>
    <i name="e_wo_entrp">     -8.77870215 </i>
    <i name="e_0_energy">     -8.77870215 </i>
   </energy>
  </scstep>
  <scstep>
   <time name="dav">    0.28    0.30</time>
   <time name="total">    0.29    0.30</time>
   <energy>
    <i name="e_fr_energy">     -9.14338047 </i>
    <i name="e_wo_entrp">     -9.14338047 </i>
    <i name="e_0_energy">     -9.14338047 </i>
   </energy>
  </scstep>
  <scstep>
   <time name="dav">    0.31    0.32</time>
   <time name="total">    0.31    0.33</time>
   <energy>
    <i name="e_fr_energy">     -9.15023973 </i>
    <i name="e_wo_entrp">     -9.15023973 </i>
    <i name="e_0_energy">     -9.15023973 </i>
   </energy>
  </scstep>
  <scstep>
   <time name="diag">    0.09    0.11</time>
   <time name="diis">    0.04    0.04</time>
   <time name="orth">    0.01    0.01</time>
   <time name="total">    0.15    0.16</time>
   <energy>
    <i name="e_fr_energy">     -9.15030814 </i>
    <i name="e_wo_entrp">     -9.15030814 </i>
    <i name="e_0_energy">     -9.15030814 </i>
   </energy>
  </scstep>
  <scstep>
   <time name="diag">    0.09    0.10</time>
   <time name="diis">    0.03    0.03</time>
   <time name="orth">    0.01    0.01</time>
   <time name="total">    0.14    0.15</time>
   <energy>
    <i name="e_fr_energy">     -9.15033143 </i>
    <i name="e_wo_entrp">     -9.15033143 </i>
    <i name="e_0_energy">     -9.15033143 </i>
   </energy>
  </scstep>
  <scstep>
   <time name="diag">    0.09    0.10</time>
   <time name="diis">    0.03    0.03</time>
   <time name="orth">    0.01    0.01</time>
   <time name="total">    0.13    0.15</time>
   <energy>
    <i name="alphaZ">     31.71721604 </i>
    <i name="ewald">  -1211.83925518 </i>
    <i name="hartreedc">   -553.71043448 </i>
    <i name="XCdc">     46.28204792 </i>
    <i name="pawpsdc">   2565.40182983 </i>
    <i name="pawaedc">  -2549.28625701 </i>
    <i name="eentropy">      0.00000000 </i>
    <i name="bandstr">    -89.55590698 </i>
    <i name="atom">   1751.84042551 </i>
    <i name="e_fr_energy">     -9.15033434 </i>
    <i name="e_wo_entrp">     -9.15033434 </i>
    <i name="e_0_energy">     -9.15033434 </i>
   </energy>
  </scstep>
  <structure>
   <crystal>
    <varray name="basis" >
     <v>       3.61541800       0.00000000       2.08736254 </v>
     <v>       1.20513900       3.40864864       2.08736254 </v>
     <v>       0.00000000       0.00000000       4.17472507 </v>
    </varray>
    <i name="volume">     51.44801605 </i>
    <varray name="rec_basis" >
     <v>       0.27659319      -0.09779044       0.00000000 </v>
     <v>       0.00000000       0.29337139       0.00000000 </v>
     <v>      -0.13829660      -0.09779048       0.23953673 </v>
    </varray>
   </crystal>
   <varray name="positions" >
    <v>       0.00000000       0.00000000       0.00000000 </v>
    <v>       0.25000000       0.25000000       0.25000000 </v>
   </varray>
  </structure>
  <varray name="forces" >
   <v>      -0.00000000       0.00000000      -0.00000000 </v>
   <v>       0.00000000      -0.00000000       0.00000000 </v>
  </varray>
  <varray name="stress" >
   <v>      -7.42263612       0.00000073      -0.00000001 </v>
   <v>       0.00000073      -7.42263551      -0.00000000 </v>
   <v>      -0.00000001      -0.00000000      -7.42263598 </v>
  </varray>
  <energy>
   <i name="e_fr_energy">     -9.15033434 </i>
   <i name="e_wo_entrp">     -9.15033434 </i>
   <i name="e_0_energy">     -9.15033434 </i>
  </energy>
  <time name="totalsc">    2.23    2.37</time>
  <eigenvalues>
   <array>
    <dimension dim="1">band</dimension>
    <dimension dim="2">kpoint</dimension>
    <dimension dim="3">spin</dimension>
    <field>eigene</field>
    <field>occ</field>
    <set>
     <set comment="spin 1">
      <set comment="kpoint 1">
       <r>   -9.2527    1.0000 </r>
       <r>   -9.2527    1.0000 </r>
       <r>   -9.2527    1.0000 </r>
       <r>   -9.1092    1.0000 </r>
       <r>   -9.1092    1.0000 </r>
       <r>   -6.5382    1.0000 </r>
       <r>    4.8618    1.0000 </r>
       <r>    4.8618    1.0000 </r>
       <r>    4.8618    1.0000 </r>
       <r>    5.3560    0.0000 </r>
       <r>    8.8727    0.0000 </r>
       <r>    8.8727    0.0000 </r>
       <r>    8.8727    0.0000 </r>
       <r>   13.1112    0.0000 </r>
       <r>   14.2514    0.0000 </r>
       <r>   14.2514    0.0000 </r>
       <r>   15.8473    0.0000 </r>
       <r>   15.8473    0.0000 </r>
       <r>   15.8473    0.0000 </r>
       <r>   18.3953    0.0000 </r>
       <r>   26.5715    0.0000 </r>
       <r>   26.5715    0.0000 </r>
       <r>   26.5715    0.0000 </r>
       <r>   28.5154    0.0000 </r>
       <r>   28.5154    0.0000 </r>
       <r>   28.5154    0.0000 </r>
       <r>   28.6681    0.0000 </r>
       <r>   28.6681    0.0000 </r>
       <r>   28.6681    0.0000 </r>
       <r>   29.5644    0.0000 </r>
       <r>   29.5644    0.0000 </r>
       <r>   37.1207    0.0000 </r>
       <r>   38.2711    0.0000 </r>
       <r>   38.2870    0.0000 </r>
       <r>   38.3133    0.0000 </r>
       <r>   38.4708    0.0000 </r>
      </set>
      <set comment="kpoint 2">
       <r>   -9.2751    1.0000 </r>
       <r>   -9.2437    1.0000 </r>
       <r>   -9.2437    1.0000 </r>
       <r>   -9.1090    1.0000 </r>
       <r>   -9.1090    1.0000 </r>
       <r>   -6.3121    1.0000 </r>
       <r>    3.0103    1.0000 </r>
       <r>    4.6305    1.0000 </r>
       <r>    4.6305    1.0000 </r>
       <r>    6.4346    0.0000 </r>
       <r>    9.0816    0.0000 </r>
       <r>    9.2143    0.0000 </r>
       <r>    9.2143    0.0000 </r>
       <r>   13.4950    0.0000 </r>
       <r>   13.4950    0.0000 </r>
       <r>   14.0192    0.0000 </r>
       <r>   15.3367    0.0000 </r>
       <r>   17.3708    0.0000 </r>
       <r>   17.3708    0.0000 </r>
       <r>   20.0344    0.0000 </r>
       <r>   24.0864    0.0000 </r>
       <r>   24.2473    0.0000 </r>
       <r>   24.2473    0.0000 </r>
       <r>   28.1493    0.0000 </r>
       <r>   28.1493    0.0000 </r>
       <r>   28.8263    0.0000 </r>
       <r>   28.8263    0.0000 </r>
       <r>   28.8347    0.0000 </r>
       <r>   30.0567    0.0000 </r>
       <r>   32.1493    0.0000 </r>
       <r>   32.1493    0.0000 </r>
       <r>   36.0762    0.0000 </r>
       <r>   36.0764    0.0000 </r>
       <r>   36.1937    0.0000 </r>
       <r>   37.9751    0.0000 </r>
       <r>   38.3496    0.0000 </r>
      </set>
      <set comment="kpoint 3">
       <r>   -9.3228    1.0000 </r>
       <r>   -9.2267    1.0000 </r>
       <r>   -9.2267    1.0000 </r>
       <r>   -9.1052    1.0000 </r>
       <r>   -9.1052    1.0000 </r>
       <r>   -5.6978    1.0000 </r>
       <r>    0.9182    1.0000 </r>
       <r>    4.2146    1.0000 </r>
       <r>    4.2146    1.0000 </r>
       <r>    6.4443    0.0000 </r>
       <r>    9.6217    0.0000 </r>
       <r>    9.6217    0.0000 </r>
       <r>   10.4298    0.0000 </r>
       <r>   13.5121    0.0000 </r>
       <r>   13.5121    0.0000 </r>
       <r>   13.6060    0.0000 </r>
       <r>   17.6475    0.0000 </r>
       <r>   19.8266    0.0000 </r>
       <r>   19.8266    0.0000 </r>
       <r>   20.7677    0.0000 </r>
       <r>   21.1021    0.0000 </r>
       <r>   21.1021    0.0000 </r>
       <r>   23.2836    0.0000 </r>
       <r>   28.1608    0.0000 </r>
       <r>   28.1608    0.0000 </r>
       <r>   29.2538    0.0000 </r>
       <r>   29.2538    0.0000 </r>
       <r>   29.2683    0.0000 </r>
       <r>   29.9619    0.0000 </r>
       <r>   31.2914    0.0000 </r>
       <r>   31.2914    0.0000 </r>
       <r>   33.6138    0.0000 </r>
       <r>   36.4190    0.0000 </r>
       <r>   36.4594    0.0000 </r>
       <r>   36.4660    0.0000 </r>
       <r>   37.2875    0.0000 </r>
      </set>
      <set comment="kpoint 4">
       <r>   -9.3587    1.0000 </r>
       <r>   -9.2171    1.0000 </r>
       <r>   -9.2171    1.0000 </r>
       <r>   -9.0979    1.0000 </r>
       <r>   -9.0979    1.0000 </r>
       <r>   -4.9947    1.0000 </r>
       <r>   -0.5887    1.0000 </r>
       <r>    3.9436    1.0000 </r>
       <r>    3.9436    1.0000 </r>
       <r>    6.2369    0.0000 </r>
       <r>    9.6086    0.0000 </r>
       <r>    9.6086    0.0000 </r>
       <r>   11.6433    0.0000 </r>
       <r>   13.7908    0.0000 </r>
       <r>   14.8866    0.0000 </r>
       <r>   14.8866    0.0000 </r>
       <r>   17.4930    0.0000 </r>
       <r>   18.0338    0.0000 </r>
       <r>   18.0338    0.0000 </r>
       <r>   21.7122    0.0000 </r>
       <r>   23.0457    0.0000 </r>
       <r>   23.0457    0.0000 </r>
       <r>   25.8608    0.0000 </r>
       <r>   26.6741    0.0000 </r>
       <r>   26.6741    0.0000 </r>
       <r>   28.0097    0.0000 </r>
       <r>   28.7867    0.0000 </r>
       <r>   28.7867    0.0000 </r>
       <r>   29.7072    0.0000 </r>
       <r>   30.6245    0.0000 </r>
       <r>   30.6245    0.0000 </r>
       <r>   31.5818    0.0000 </r>
       <r>   33.9646    0.0000 </r>
       <r>   35.9529    0.0000 </r>
       <r>   35.9943    0.0000 </r>
       <r>   36.2079    0.0000 </r>
      </set>
      <set comment="kpoint 5">
       <r>   -9.2916    1.0000 </r>
       <r>   -9.2348    1.0000 </r>
       <r>   -9.2348    1.0000 </r>
       <r>   -9.1167    1.0000 </r>
       <r>   -9.1030    1.0000 </r>
       <r>   -6.2376    1.0000 </r>
       <r>    3.0058    1.0000 </r>
       <r>    4.2302    1.0000 </r>
       <r>    4.2302    1.0000 </r>
       <r>    7.1088    0.0000 </r>
       <r>    8.0739    0.0000 </r>
       <r>    9.7816    0.0000 </r>
       <r>    9.7816    0.0000 </r>
       <r>   12.3060    0.0000 </r>
       <r>   14.4384    0.0000 </r>
       <r>   14.6182    0.0000 </r>
       <r>   16.5255    0.0000 </r>
       <r>   16.5255    0.0000 </r>
       <r>   16.8766    0.0000 </r>
       <r>   20.9159    0.0000 </r>
       <r>   23.5664    0.0000 </r>
       <r>   23.5664    0.0000 </r>
       <r>   25.2310    0.0000 </r>
       <r>   25.7355    0.0000 </r>
       <r>   27.1732    0.0000 </r>
       <r>   28.8625    0.0000 </r>
       <r>   28.8625    0.0000 </r>
       <r>   31.0181    0.0000 </r>
       <r>   31.5489    0.0000 </r>
       <r>   31.5489    0.0000 </r>
       <r>   32.4591    0.0000 </r>
       <r>   34.1967    0.0000 </r>
       <r>   36.4336    0.0000 </r>
       <r>   36.4338    0.0000 </r>
       <r>   37.6907    0.0000 </r>
       <r>   38.2530    0.0000 </r>
      </set>
      <set comment="kpoint 6">
       <r>   -9.3297    1.0000 </r>
       <r>   -9.2199    1.0000 </r>
       <r>   -9.2162    1.0000 </r>
       <r>   -9.1211    1.0000 </r>
       <r>   -9.0971    1.0000 </r>
       <r>   -5.7506    1.0000 </r>
       <r>    1.4401    1.0000 </r>
       <r>    3.7102    1.0000 </r>
       <r>    3.7737    1.0000 </r>
       <r>    7.4262    0.0000 </r>
       <r>    8.3615    0.0000 </r>
       <r>   10.2217    0.0000 </r>
       <r>   10.4272    0.0000 </r>
       <r>   12.4009    0.0000 </r>
       <r>   14.4302    0.0000 </r>
       <r>   15.1671    0.0000 </r>
       <r>   17.1209    0.0000 </r>
       <r>   18.3148    0.0000 </r>
       <r>   19.4358    0.0000 </r>
       <r>   20.7991    0.0000 </r>
       <r>   20.8304    0.0000 </r>
       <r>   23.2009    0.0000 </r>
       <r>   24.1278    0.0000 </r>
       <r>   25.4220    0.0000 </r>
       <r>   26.0222    0.0000 </r>
       <r>   29.3032    0.0000 </r>
       <r>   29.4097    0.0000 </r>
       <r>   30.2228    0.0000 </r>
       <r>   31.5967    0.0000 </r>
       <r>   32.0574    0.0000 </r>
       <r>   32.6447    0.0000 </r>
       <r>   33.6662    0.0000 </r>
       <r>   35.0634    0.0000 </r>
       <r>   35.6246    0.0000 </r>
       <r>   35.9296    0.0000 </r>
       <r>   37.1589    0.0000 </r>
      </set>
      <set comment="kpoint 7">
       <r>   -9.3614    1.0000 </r>
       <r>   -9.2120    1.0000 </r>
       <r>   -9.2045    1.0000 </r>
       <r>   -9.1149    1.0000 </r>
       <r>   -9.0930    1.0000 </r>
       <r>   -5.0388    1.0000 </r>
       <r>   -0.1596    1.0000 </r>
       <r>    3.1290    1.0000 </r>
       <r>    3.5668    1.0000 </r>
       <r>    7.2364    0.0000 </r>
       <r>    9.0848    0.0000 </r>
       <r>   10.4052    0.0000 </r>
       <r>   10.8371    0.0000 </r>
       <r>   13.7274    0.0000 </r>
       <r>   15.0298    0.0000 </r>
       <r>   15.3652    0.0000 </r>
       <r>   17.2722    0.0000 </r>
       <r>   17.9768    0.0000 </r>
       <r>   20.5890    0.0000 </r>
       <r>   21.0284    0.0000 </r>
       <r>   21.1366    0.0000 </r>
       <r>   22.8843    0.0000 </r>
       <r>   25.4134    0.0000 </r>
       <r>   25.8245    0.0000 </r>
       <r>   26.3102    0.0000 </r>
       <r>   27.4456    0.0000 </r>
       <r>   29.0510    0.0000 </r>
       <r>   29.2404    0.0000 </r>
       <r>   30.3125    0.0000 </r>
       <r>   30.8246    0.0000 </r>
       <r>   31.3246    0.0000 </r>
       <r>   32.4231    0.0000 </r>
       <r>   33.6676    0.0000 </r>
       <r>   34.4805    0.0000 </r>
       <r>   35.4846    0.0000 </r>
       <r>   36.5851    0.0000 </r>
      </set>
      <set comment="kpoint 8">
       <r>   -9.3685    1.0000 </r>
       <r>   -9.2111    1.0000 </r>
       <r>   -9.2043    1.0000 </r>
       <r>   -9.1041    1.0000 </r>
       <r>   -9.0984    1.0000 </r>
       <r>   -4.7313    1.0000 </r>
       <r>   -0.7037    1.0000 </r>
       <r>    2.7957    1.0000 </r>
       <r>    3.6962    1.0000 </r>
       <r>    7.1946    0.0000 </r>
       <r>    9.2215    0.0000 </r>
       <r>   10.1316    0.0000 </r>
       <r>   11.8457    0.0000 </r>
       <r>   14.1581    0.0000 </r>
       <r>   14.6237    0.0000 </r>
       <r>   15.2754    0.0000 </r>
       <r>   16.8571    0.0000 </r>
       <r>   18.4095    0.0000 </r>
       <r>   18.9618    0.0000 </r>
       <r>   21.6225    0.0000 </r>
       <r>   23.7524    0.0000 </r>
       <r>   23.8482    0.0000 </r>
       <r>   25.2375    0.0000 </r>
       <r>   25.6229    0.0000 </r>
       <r>   26.5104    0.0000 </r>
       <r>   26.7950    0.0000 </r>
       <r>   27.4810    0.0000 </r>
       <r>   29.6941    0.0000 </r>
       <r>   30.1075    0.0000 </r>
       <r>   30.3050    0.0000 </r>
       <r>   31.2932    0.0000 </r>
       <r>   31.4605    0.0000 </r>
       <r>   32.4213    0.0000 </r>
       <r>   34.2097    0.0000 </r>
       <r>   35.3097    0.0000 </r>
       <r>   36.1855    0.0000 </r>
      </set>
      <set comment="kpoint 9">
       <r>   -9.3461    1.0000 </r>
       <r>   -9.2151    1.0000 </r>
       <r>   -9.2147    1.0000 </r>
       <r>   -9.1102    1.0000 </r>
       <r>   -9.1005    1.0000 </r>
       <r>   -5.2798    1.0000 </r>
       <r>    0.3192    1.0000 </r>
       <r>    2.8698    1.0000 </r>
       <r>    4.1008    1.0000 </r>
       <r>    7.3296    0.0000 </r>
       <r>    9.5095    0.0000 </r>
       <r>    9.8857    0.0000 </r>
       <r>   10.5421    0.0000 </r>
       <r>   12.9624    0.0000 </r>
       <r>   14.6405    0.0000 </r>
       <r>   15.5292    0.0000 </r>
       <r>   16.9282    0.0000 </r>
       <r>   18.7352    0.0000 </r>
       <r>   20.6005    0.0000 </r>
       <r>   20.8802    0.0000 </r>
       <r>   21.0396    0.0000 </r>
       <r>   22.5368    0.0000 </r>
       <r>   25.1204    0.0000 </r>
       <r>   25.2255    0.0000 </r>
       <r>   26.8811    0.0000 </r>
       <r>   28.4547    0.0000 </r>
       <r>   28.6821    0.0000 </r>
       <r>   29.3759    0.0000 </r>
       <r>   30.1455    0.0000 </r>
       <r>   31.2353    0.0000 </r>
       <r>   31.5597    0.0000 </r>
       <r>   33.8863    0.0000 </r>
       <r>   34.2460    0.0000 </r>
       <r>   34.4673    0.0000 </r>
       <r>   36.0198    0.0000 </r>
       <r>   36.7815    0.0000 </r>
      </set>
      <set comment="kpoint 10">
       <r>   -9.3068    1.0000 </r>
       <r>   -9.2334    1.0000 </r>
       <r>   -9.2269    1.0000 </r>
       <r>   -9.1137    1.0000 </r>
       <r>   -9.1035    1.0000 </r>
       <r>   -5.9548    1.0000 </r>
       <r>    1.9124    1.0000 </r>
       <r>    3.5355    1.0000 </r>
       <r>    4.5508    1.0000 </r>
       <r>    7.2047    0.0000 </r>
       <r>    9.0088    0.0000 </r>
       <r>    9.4099    0.0000 </r>
       <r>   10.0143    0.0000 </r>
       <r>   12.6134    0.0000 </r>
       <r>   13.7985    0.0000 </r>
       <r>   15.1885    0.0000 </r>
       <r>   16.0453    0.0000 </r>
       <r>   17.6793    0.0000 </r>
       <r>   19.6027    0.0000 </r>
       <r>   20.7756    0.0000 </r>
       <r>   21.9165    0.0000 </r>
       <r>   23.4069    0.0000 </r>
       <r>   23.9901    0.0000 </r>
       <r>   25.3308    0.0000 </r>
       <r>   26.8970    0.0000 </r>
       <r>   29.0116    0.0000 </r>
       <r>   29.2857    0.0000 </r>
       <r>   31.1412    0.0000 </r>
       <r>   31.5982    0.0000 </r>
       <r>   32.1326    0.0000 </r>
       <r>   32.2917    0.0000 </r>
       <r>   34.1275    0.0000 </r>
       <r>   35.2979    0.0000 </r>
       <r>   36.1959    0.0000 </r>
       <r>   36.2999    0.0000 </r>
       <r>   36.8906    0.0000 </r>
      </set>
      <set comment="kpoint 11">
       <r>   -9.3670    1.0000 </r>
       <r>   -9.1936    1.0000 </r>
       <r>   -9.1936    1.0000 </r>
       <r>   -9.1367    1.0000 </r>
       <r>   -9.0890    1.0000 </r>
       <r>   -5.4182    1.0000 </r>
       <r>    1.0173    1.0000 </r>
       <r>    3.2512    1.0000 </r>
       <r>    3.2512    1.0000 </r>
       <r>    7.0385    0.0000 </r>
       <r>    7.7993    0.0000 </r>
       <r>   11.6251    0.0000 </r>
       <r>   11.6251    0.0000 </r>
       <r>   11.8337    0.0000 </r>
       <r>   14.9470    0.0000 </r>
       <r>   17.2530    0.0000 </r>
       <r>   18.4749    0.0000 </r>
       <r>   18.4749    0.0000 </r>
       <r>   18.5974    0.0000 </r>
       <r>   20.1557    0.0000 </r>
       <r>   20.1557    0.0000 </r>
       <r>   22.2492    0.0000 </r>
       <r>   22.9822    0.0000 </r>
       <r>   25.3804    0.0000 </r>
       <r>   27.3105    0.0000 </r>
       <r>   28.7841    0.0000 </r>
       <r>   29.4362    0.0000 </r>
       <r>   29.4362    0.0000 </r>
       <r>   30.5880    0.0000 </r>
       <r>   30.5880    0.0000 </r>
       <r>   32.5611    0.0000 </r>
       <r>   34.1268    0.0000 </r>
       <r>   34.2078    0.0000 </r>
       <r>   36.0559    0.0000 </r>
       <r>   36.0564    0.0000 </r>
       <r>   37.5398    0.0000 </r>
      </set>
      <set comment="kpoint 12">
       <r>   -9.3917    1.0000 </r>
       <r>   -9.1838    1.0000 </r>
       <r>   -9.1780    1.0000 </r>
       <r>   -9.1393    1.0000 </r>
       <r>   -9.0849    1.0000 </r>
       <r>   -4.8181    1.0000 </r>
       <r>   -0.0264    1.0000 </r>
       <r>    2.5176    1.0000 </r>
       <r>    2.9974    1.0000 </r>
       <r>    7.1266    0.0000 </r>
       <r>    8.1009    0.0000 </r>
       <r>   11.2717    0.0000 </r>
       <r>   12.0477    0.0000 </r>
       <r>   13.8270    0.0000 </r>
       <r>   15.6024    0.0000 </r>
       <r>   17.0043    0.0000 </r>
       <r>   17.8682    0.0000 </r>
       <r>   18.0482    0.0000 </r>
       <r>   20.0120    0.0000 </r>
       <r>   20.3494    0.0000 </r>
       <r>   21.3565    0.0000 </r>
       <r>   22.4376    0.0000 </r>
       <r>   22.9248    0.0000 </r>
       <r>   25.0571    0.0000 </r>
       <r>   26.0094    0.0000 </r>
       <r>   28.0970    0.0000 </r>
       <r>   28.1819    0.0000 </r>
       <r>   29.3582    0.0000 </r>
       <r>   30.2708    0.0000 </r>
       <r>   30.5101    0.0000 </r>
       <r>   32.0481    0.0000 </r>
       <r>   32.6901    0.0000 </r>
       <r>   33.1977    0.0000 </r>
       <r>   35.1056    0.0000 </r>
       <r>   35.6074    0.0000 </r>
       <r>   36.9958    0.0000 </r>
      </set>
      <set comment="kpoint 13">
       <r>   -9.3904    1.0000 </r>
       <r>   -9.1926    1.0000 </r>
       <r>   -9.1772    1.0000 </r>
       <r>   -9.1272    1.0000 </r>
       <r>   -9.0923    1.0000 </r>
       <r>   -4.3830    1.0000 </r>
       <r>   -0.6372    1.0000 </r>
       <r>    1.7621    1.0000 </r>
       <r>    3.1233    1.0000 </r>
       <r>    7.2793    0.0000 </r>
       <r>    9.4518    0.0000 </r>
       <r>   11.4023    0.0000 </r>
       <r>   11.6146    0.0000 </r>
       <r>   13.4155    0.0000 </r>
       <r>   14.7812    0.0000 </r>
       <r>   17.0542    0.0000 </r>
       <r>   17.7816    0.0000 </r>
       <r>   18.5233    0.0000 </r>
       <r>   20.1165    0.0000 </r>
       <r>   21.1925    0.0000 </r>
       <r>   22.1178    0.0000 </r>
       <r>   23.4599    0.0000 </r>
       <r>   24.1642    0.0000 </r>
       <r>   25.1400    0.0000 </r>
       <r>   25.9171    0.0000 </r>
       <r>   27.1222    0.0000 </r>
       <r>   27.3753    0.0000 </r>
       <r>   29.0950    0.0000 </r>
       <r>   29.1082    0.0000 </r>
       <r>   30.1417    0.0000 </r>
       <r>   31.4437    0.0000 </r>
       <r>   32.1511    0.0000 </r>
       <r>   32.5303    0.0000 </r>
       <r>   33.5228    0.0000 </r>
       <r>   35.5286    0.0000 </r>
       <r>   36.3988    0.0000 </r>
      </set>
      <set comment="kpoint 14">
       <r>   -9.3711    1.0000 </r>
       <r>   -9.2049    1.0000 </r>
       <r>   -9.1914    1.0000 </r>
       <r>   -9.1105    1.0000 </r>
       <r>   -9.1059    1.0000 </r>
       <r>   -4.6711    1.0000 </r>
       <r>   -0.2754    1.0000 </r>
       <r>    1.7346    1.0000 </r>
       <r>    3.5752    1.0000 </r>
       <r>    7.6336    0.0000 </r>
       <r>    9.8643    0.0000 </r>
       <r>   10.8557    0.0000 </r>
       <r>   10.9052    0.0000 </r>
       <r>   13.2741    0.0000 </r>
       <r>   13.8297    0.0000 </r>
       <r>   17.2353    0.0000 </r>
       <r>   17.6843    0.0000 </r>
       <r>   18.4064    0.0000 </r>
       <r>   19.8758    0.0000 </r>
       <r>   20.6876    0.0000 </r>
       <r>   22.7347    0.0000 </r>
       <r>   23.6633    0.0000 </r>
       <r>   25.0593    0.0000 </r>
       <r>   25.1872    0.0000 </r>
       <r>   26.6595    0.0000 </r>
       <r>   26.7880    0.0000 </r>
       <r>   28.1879    0.0000 </r>
       <r>   28.7626    0.0000 </r>
       <r>   28.9642    0.0000 </r>
       <r>   29.7611    0.0000 </r>
       <r>   30.8922    0.0000 </r>
       <r>   32.4372    0.0000 </r>
       <r>   32.9487    0.0000 </r>
       <r>   35.7192    0.0000 </r>
       <r>   35.7374    0.0000 </r>
       <r>   36.5692    0.0000 </r>
      </set>
      <set comment="kpoint 15">
       <r>   -9.4197    1.0000 </r>
       <r>   -9.1593    1.0000 </r>
       <r>   -9.1593    1.0000 </r>
       <r>   -9.1547    1.0000 </r>
       <r>   -9.0778    1.0000 </r>
       <r>   -4.4283    1.0000 </r>
       <r>   -0.5771    1.0000 </r>
       <r>    2.6582    1.0000 </r>
       <r>    2.6582    1.0000 </r>
       <r>    6.5678    0.0000 </r>
       <r>    7.1534    0.0000 </r>
       <r>   13.4298    0.0000 </r>
       <r>   13.6721    0.0000 </r>
       <r>   13.6721    0.0000 </r>
       <r>   15.5086    0.0000 </r>
       <r>   17.2242    0.0000 </r>
       <r>   17.2242    0.0000 </r>
       <r>   18.2311    0.0000 </r>
       <r>   20.3897    0.0000 </r>
       <r>   21.2601    0.0000 </r>
       <r>   21.6306    0.0000 </r>
       <r>   21.6306    0.0000 </r>
       <r>   22.6865    0.0000 </r>
       <r>   24.4994    0.0000 </r>
       <r>   25.7043    0.0000 </r>
       <r>   25.7043    0.0000 </r>
       <r>   26.2962    0.0000 </r>
       <r>   29.7283    0.0000 </r>
       <r>   31.0879    0.0000 </r>
       <r>   31.0879    0.0000 </r>
       <r>   31.7261    0.0000 </r>
       <r>   33.3644    0.0000 </r>
       <r>   34.3997    0.0000 </r>
       <r>   34.7562    0.0000 </r>
       <r>   34.7563    0.0000 </r>
       <r>   37.6909    0.0000 </r>
      </set>
      <set comment="kpoint 16">
       <r>   -9.4169    1.0000 </r>
       <r>   -9.1680    1.0000 </r>
       <r>   -9.1589    1.0000 </r>
       <r>   -9.1471    1.0000 </r>
       <r>   -9.0812    1.0000 </r>
       <r>   -4.2006    1.0000 </r>
       <r>   -0.8149    1.0000 </r>
       <r>    2.0587    1.0000 </r>
       <r>    2.7067    1.0000 </r>
       <r>    6.8418    0.0000 </r>
       <r>    7.8208    0.0000 </r>
       <r>   12.9189    0.0000 </r>
       <r>   13.2519    0.0000 </r>
       <r>   13.8863    0.0000 </r>
       <r>   15.4417    0.0000 </r>
       <r>   16.7866    0.0000 </r>
       <r>   17.3240    0.0000 </r>
       <r>   19.0200    0.0000 </r>
       <r>   20.0109    0.0000 </r>
       <r>   21.2840    0.0000 </r>
       <r>   21.8051    0.0000 </r>
       <r>   23.5221    0.0000 </r>
       <r>   23.5240    0.0000 </r>
       <r>   24.4177    0.0000 </r>
       <r>   24.6349    0.0000 </r>
       <r>   25.3384    0.0000 </r>
       <r>   26.5392    0.0000 </r>
       <r>   28.2149    0.0000 </r>
       <r>   30.9487    0.0000 </r>
       <r>   30.9499    0.0000 </r>
       <r>   32.0510    0.0000 </r>
       <r>   32.7494    0.0000 </r>
       <r>   34.3402    0.0000 </r>
       <r>   34.9100    0.0000 </r>
       <r>   35.0740    0.0000 </r>
       <r>   36.3166    0.0000 </r>
      </set>
      <set comment="kpoint 17">
       <r>   -9.3611    1.0000 </r>
       <r>   -9.2068    1.0000 </r>
       <r>   -9.1967    1.0000 </r>
       <r>   -9.1257    1.0000 </r>
       <r>   -9.0930    1.0000 </r>
       <r>   -5.1985    1.0000 </r>
       <r>    0.5007    1.0000 </r>
       <r>    2.5682    1.0000 </r>
       <r>    3.5445    1.0000 </r>
       <r>    8.0995    0.0000 </r>
       <r>    8.3582    0.0000 </r>
       <r>    9.8876    0.0000 </r>
       <r>   11.4481    0.0000 </r>
       <r>   12.8162    0.0000 </r>
       <r>   15.5725    0.0000 </r>
       <r>   16.4981    0.0000 </r>
       <r>   16.8431    0.0000 </r>
       <r>   18.1294    0.0000 </r>
       <r>   20.1309    0.0000 </r>
       <r>   20.6178    0.0000 </r>
       <r>   21.5722    0.0000 </r>
       <r>   22.3308    0.0000 </r>
       <r>   24.3927    0.0000 </r>
       <r>   25.3678    0.0000 </r>
       <r>   26.3205    0.0000 </r>
       <r>   27.6083    0.0000 </r>
       <r>   28.2286    0.0000 </r>
       <r>   29.5596    0.0000 </r>
       <r>   30.8189    0.0000 </r>
       <r>   31.7123    0.0000 </r>
       <r>   32.0347    0.0000 </r>
       <r>   33.4943    0.0000 </r>
       <r>   34.2889    0.0000 </r>
       <r>   35.3553    0.0000 </r>
       <r>   35.5027    0.0000 </r>
       <r>   36.0857    0.0000 </r>
      </set>
      <set comment="kpoint 18">
       <r>   -9.3784    1.0000 </r>
       <r>   -9.2049    1.0000 </r>
       <r>   -9.1833    1.0000 </r>
       <r>   -9.1201    1.0000 </r>
       <r>   -9.0956    1.0000 </r>
       <r>   -4.5840    1.0000 </r>
       <r>   -0.4602    1.0000 </r>
       <r>    2.0398    1.0000 </r>
       <r>    3.1389    1.0000 </r>
       <r>    8.1313    0.0000 </r>
       <r>    8.9704    0.0000 </r>
       <r>   10.2561    0.0000 </r>
       <r>   11.9740    0.0000 </r>
       <r>   13.2245    0.0000 </r>
       <r>   15.2393    0.0000 </r>
       <r>   16.4081    0.0000 </r>
       <r>   17.1906    0.0000 </r>
       <r>   18.7367    0.0000 </r>
       <r>   20.0421    0.0000 </r>
       <r>   20.6343    0.0000 </r>
       <r>   23.0783    0.0000 </r>
       <r>   23.6002    0.0000 </r>
       <r>   24.4581    0.0000 </r>
       <r>   25.0477    0.0000 </r>
       <r>   25.8191    0.0000 </r>
       <r>   27.2031    0.0000 </r>
       <r>   28.2428    0.0000 </r>
       <r>   28.3344    0.0000 </r>
       <r>   29.5852    0.0000 </r>
       <r>   30.3229    0.0000 </r>
       <r>   31.8712    0.0000 </r>
       <r>   32.0661    0.0000 </r>
       <r>   33.1207    0.0000 </r>
       <r>   34.2885    0.0000 </r>
       <r>   34.8455    0.0000 </r>
       <r>   35.5867    0.0000 </r>
      </set>
      <set comment="kpoint 19">
       <r>   -9.4029    1.0000 </r>
       <r>   -9.1831    1.0000 </r>
       <r>   -9.1648    1.0000 </r>
       <r>   -9.1384    1.0000 </r>
       <r>   -9.0863    1.0000 </r>
       <r>   -4.3408    1.0000 </r>
       <r>   -0.5877    1.0000 </r>
       <r>    2.1232    1.0000 </r>
       <r>    2.4597    1.0000 </r>
       <r>    7.7574    0.0000 </r>
       <r>    8.1340    0.0000 </r>
       <r>   11.1126    0.0000 </r>
       <r>   12.9256    0.0000 </r>
       <r>   13.9059    0.0000 </r>
       <r>   15.9936    0.0000 </r>
       <r>   16.6111    0.0000 </r>
       <r>   17.2732    0.0000 </r>
       <r>   18.9951    0.0000 </r>
       <r>   20.0342    0.0000 </r>
       <r>   20.8897    0.0000 </r>
       <r>   22.0806    0.0000 </r>
       <r>   23.0950    0.0000 </r>
       <r>   24.1146    0.0000 </r>
       <r>   24.3116    0.0000 </r>
       <r>   24.7883    0.0000 </r>
       <r>   26.1863    0.0000 </r>
       <r>   28.1465    0.0000 </r>
       <r>   28.6794    0.0000 </r>
       <r>   29.7761    0.0000 </r>
       <r>   30.9333    0.0000 </r>
       <r>   32.1228    0.0000 </r>
       <r>   32.3983    0.0000 </r>
       <r>   32.8020    0.0000 </r>
       <r>   33.9929    0.0000 </r>
       <r>   35.2318    0.0000 </r>
       <r>   35.9984    0.0000 </r>
      </set>
      <set comment="kpoint 20">
       <r>   -9.3932    1.0000 </r>
       <r>   -9.1961    1.0000 </r>
       <r>   -9.1657    1.0000 </r>
       <r>   -9.1281    1.0000 </r>
       <r>   -9.0950    1.0000 </r>
       <r>   -4.2157    1.0000 </r>
       <r>   -0.6804    1.0000 </r>
       <r>    1.6536    1.0000 </r>
       <r>    2.5401    1.0000 </r>
       <r>    8.1762    0.0000 </r>
       <r>    9.4391    0.0000 </r>
       <r>   10.6102    0.0000 </r>
       <r>   11.5076    0.0000 </r>
       <r>   13.8455    0.0000 </r>
       <r>   15.2869    0.0000 </r>
       <r>   17.1712    0.0000 </r>
       <r>   17.7380    0.0000 </r>
       <r>   18.9930    0.0000 </r>
       <r>   20.4661    0.0000 </r>
       <r>   20.7574    0.0000 </r>
       <r>   22.4585    0.0000 </r>
       <r>   22.9814    0.0000 </r>
       <r>   23.9385    0.0000 </r>
       <r>   24.2916    0.0000 </r>
       <r>   26.4604    0.0000 </r>
       <r>   27.2821    0.0000 </r>
       <r>   27.9896    0.0000 </r>
       <r>   28.5791    0.0000 </r>
       <r>   28.9493    0.0000 </r>
       <r>   29.9893    0.0000 </r>
       <r>   30.2324    0.0000 </r>
       <r>   32.2661    0.0000 </r>
       <r>   32.7829    0.0000 </r>
       <r>   33.7475    0.0000 </r>
       <r>   35.1970    0.0000 </r>
       <r>   35.6853    0.0000 </r>
      </set>
     </set>
    </set>
   </array>
  </eigenvalues>
  <separator name="orbital magnetization" >
   <v name="MAGDIPOLOUT">      0.00000000      0.00000000      0.00000000</v>
  </separator>
  <dos>
   <i name="efermi">      4.88434809 </i>
   <total>
    <array>
     <dimension dim="1">gridpoints</dimension>
     <dimension dim="2">spin</dimension>
     <field>energy</field>
     <field>total</field>
     <field>integrated</field>
     <set>
      <set comment="spin 1">
       <r>   -11.8143     0.0000     0.0000 </r>
       <r>   -11.7865     0.0000     0.0000 </r>
       <r>   -11.7587     0.0000     0.0000 </r>
       <r>   -11.7309     0.0000     0.0000 </r>
       <r>   -11.7031     0.0000     0.0000 </r>
       <r>   -11.6753     0.0000     0.0000 </r>
       <r>   -11.6476     0.0000     0.0000 </r>
       <r>   -11.6198     0.0000     0.0000 </r>
       <r>   -11.5920     0.0000     0.0000 </r>
       <r>   -11.5642     0.0000     0.0000 </r>
       <r>   -11.5364     0.0000     0.0000 </r>
       <r>   -11.5086     0.0000     0.0000 </r>
       <r>   -11.4808     0.0000     0.0000 </r>
       <r>   -11.4531     0.0000     0.0000 </r>
       <r>   -11.4253     0.0000     0.0000 </r>
       <r>   -11.3975     0.0000     0.0000 </r>
       <r>   -11.3697     0.0000     0.0000 </r>
       <r>   -11.3419     0.0000     0.0000 </r>
       <r>   -11.3141     0.0000     0.0000 </r>
       <r>   -11.2864     0.0000     0.0000 </r>
       <r>   -11.2586     0.0000     0.0000 </r>
       <r>   -11.2308     0.0000     0.0000 </r>
       <r>   -11.2030     0.0000     0.0000 </r>
       <r>   -11.1752     0.0000     0.0000 </r>
       <r>   -11.1474     0.0000     0.0000 </r>
       <r>   -11.1196     0.0000     0.0000 </r>
       <r>   -11.0919     0.0000     0.0000 </r>
       <r>   -11.0641     0.0000     0.0000 </r>
       <r>   -11.0363     0.0000     0.0000 </r>
       <r>   -11.0085     0.0000     0.0000 </r>
       <r>   -10.9807     0.0000     0.0000 </r>
       <r>   -10.9529     0.0000     0.0000 </r>
       <r>   -10.9252     0.0000     0.0000 </r>
       <r>   -10.8974     0.0000     0.0000 </r>
       <r>   -10.8696     0.0000     0.0000 </r>
       <r>   -10.8418     0.0000     0.0000 </r>
       <r>   -10.8140     0.0000     0.0000 </r>
       <r>   -10.7862     0.0000     0.0000 </r>
       <r>   -10.7584     0.0000     0.0000 </r>
       <r>   -10.7307     0.0000     0.0000 </r>
       <r>   -10.7029     0.0000     0.0000 </r>
       <r>   -10.6751     0.0000     0.0000 </r>
       <r>   -10.6473     0.0000     0.0000 </r>
       <r>   -10.6195     0.0000     0.0000 </r>
       <r>   -10.5917     0.0000     0.0000 </r>
       <r>   -10.5640     0.0000     0.0000 </r>
       <r>   -10.5362     0.0000     0.0000 </r>
       <r>   -10.5084     0.0000     0.0000 </r>
       <r>   -10.4806     0.0000     0.0000 </r>
       <r>   -10.4528     0.0000     0.0000 </r>
       <r>   -10.4250     0.0000     0.0000 </r>
       <r>   -10.3972     0.0000     0.0000 </r>
       <r>   -10.3695     0.0000     0.0000 </r>
       <r>   -10.3417     0.0000     0.0000 </r>
       <r>   -10.3139     0.0000     0.0000 </r>
       <r>   -10.2861     0.0000     0.0000 </r>
       <r>   -10.2583     0.0000     0.0000 </r>
       <r>   -10.2305     0.0000     0.0000 </r>
       <r>   -10.2028     0.0000     0.0000 </r>
       <r>   -10.1750     0.0000     0.0000 </r>
       <r>   -10.1472     0.0000     0.0000 </r>
       <r>   -10.1194     0.0000     0.0000 </r>
       <r>   -10.0916     0.0000     0.0000 </r>
       <r>   -10.0638     0.0000     0.0000 </r>
       <r>   -10.0360     0.0000     0.0000 </r>
       <r>   -10.0083     0.0000     0.0000 </r>
       <r>    -9.9805     0.0000     0.0000 </r>
       <r>    -9.9527     0.0000     0.0000 </r>
       <r>    -9.9249     0.0000     0.0000 </r>
       <r>    -9.8971     0.0000     0.0000 </r>
       <r>    -9.8693     0.0000     0.0000 </r>
       <r>    -9.8416     0.0000     0.0000 </r>
       <r>    -9.8138     0.0000     0.0000 </r>
       <r>    -9.7860     0.0000     0.0000 </r>
       <r>    -9.7582     0.0000     0.0000 </r>
       <r>    -9.7304     0.0000     0.0000 </r>
       <r>    -9.7026     0.0000     0.0000 </r>
       <r>    -9.6748     0.0000     0.0000 </r>
       <r>    -9.6471     0.0000     0.0000 </r>
       <r>    -9.6193     0.0000     0.0000 </r>
       <r>    -9.5915     0.0000     0.0000 </r>
       <r>    -9.5637     0.0000     0.0000 </r>
       <r>    -9.5359     0.0000     0.0000 </r>
       <r>    -9.5081     0.0000     0.0000 </r>
       <r>    -9.4804     0.0000     0.0000 </r>
       <r>    -9.4526     0.0000     0.0000 </r>
       <r>    -9.4248     0.0000     0.0000 </r>
       <r>    -9.3970    24.6126     0.2478 </r>
       <r>    -9.3692    35.9440     1.0906 </r>
       <r>    -9.3414    14.7811     1.6557 </r>
       <r>    -9.3136     4.8999     1.8652 </r>
       <r>    -9.2859     2.4375     1.9640 </r>
       <r>    -9.2581     0.1041     1.9998 </r>
       <r>    -9.2303    21.7181     2.1992 </r>
       <r>    -9.2025   106.6184     3.8325 </r>
       <r>    -9.1747    46.5608     5.4758 </r>
       <r>    -9.1469    15.6640     6.0404 </r>
       <r>    -9.1192    83.0199     7.1035 </r>
       <r>    -9.0914   133.2705     9.4970 </r>
       <r>    -9.0636     5.0367    10.0000 </r>
       <r>    -9.0358     0.0000    10.0000 </r>
       <r>    -9.0080     0.0000    10.0000 </r>
       <r>    -8.9802     0.0000    10.0000 </r>
       <r>    -8.9524     0.0000    10.0000 </r>
       <r>    -8.9247     0.0000    10.0000 </r>
       <r>    -8.8969     0.0000    10.0000 </r>
       <r>    -8.8691     0.0000    10.0000 </r>
       <r>    -8.8413     0.0000    10.0000 </r>
       <r>    -8.8135     0.0000    10.0000 </r>
       <r>    -8.7857     0.0000    10.0000 </r>
       <r>    -8.7580     0.0000    10.0000 </r>
       <r>    -8.7302     0.0000    10.0000 </r>
       <r>    -8.7024     0.0000    10.0000 </r>
       <r>    -8.6746     0.0000    10.0000 </r>
       <r>    -8.6468     0.0000    10.0000 </r>
       <r>    -8.6190     0.0000    10.0000 </r>
       <r>    -8.5912     0.0000    10.0000 </r>
       <r>    -8.5635     0.0000    10.0000 </r>
       <r>    -8.5357     0.0000    10.0000 </r>
       <r>    -8.5079     0.0000    10.0000 </r>
       <r>    -8.4801     0.0000    10.0000 </r>
       <r>    -8.4523     0.0000    10.0000 </r>
       <r>    -8.4245     0.0000    10.0000 </r>
       <r>    -8.3968     0.0000    10.0000 </r>
       <r>    -8.3690     0.0000    10.0000 </r>
       <r>    -8.3412     0.0000    10.0000 </r>
       <r>    -8.3134     0.0000    10.0000 </r>
       <r>    -8.2856     0.0000    10.0000 </r>
       <r>    -8.2578     0.0000    10.0000 </r>
       <r>    -8.2300     0.0000    10.0000 </r>
       <r>    -8.2023     0.0000    10.0000 </r>
       <r>    -8.1745     0.0000    10.0000 </r>
       <r>    -8.1467     0.0000    10.0000 </r>
       <r>    -8.1189     0.0000    10.0000 </r>
       <r>    -8.0911     0.0000    10.0000 </r>
       <r>    -8.0633     0.0000    10.0000 </r>
       <r>    -8.0356     0.0000    10.0000 </r>
       <r>    -8.0078     0.0000    10.0000 </r>
       <r>    -7.9800     0.0000    10.0000 </r>
       <r>    -7.9522     0.0000    10.0000 </r>
       <r>    -7.9244     0.0000    10.0000 </r>
       <r>    -7.8966     0.0000    10.0000 </r>
       <r>    -7.8688     0.0000    10.0000 </r>
       <r>    -7.8411     0.0000    10.0000 </r>
       <r>    -7.8133     0.0000    10.0000 </r>
       <r>    -7.7855     0.0000    10.0000 </r>
       <r>    -7.7577     0.0000    10.0000 </r>
       <r>    -7.7299     0.0000    10.0000 </r>
       <r>    -7.7021     0.0000    10.0000 </r>
       <r>    -7.6744     0.0000    10.0000 </r>
       <r>    -7.6466     0.0000    10.0000 </r>
       <r>    -7.6188     0.0000    10.0000 </r>
       <r>    -7.5910     0.0000    10.0000 </r>
       <r>    -7.5632     0.0000    10.0000 </r>
       <r>    -7.5354     0.0000    10.0000 </r>
       <r>    -7.5076     0.0000    10.0000 </r>
       <r>    -7.4799     0.0000    10.0000 </r>
       <r>    -7.4521     0.0000    10.0000 </r>
       <r>    -7.4243     0.0000    10.0000 </r>
       <r>    -7.3965     0.0000    10.0000 </r>
       <r>    -7.3687     0.0000    10.0000 </r>
       <r>    -7.3409     0.0000    10.0000 </r>
       <r>    -7.3132     0.0000    10.0000 </r>
       <r>    -7.2854     0.0000    10.0000 </r>
       <r>    -7.2576     0.0000    10.0000 </r>
       <r>    -7.2298     0.0000    10.0000 </r>
       <r>    -7.2020     0.0000    10.0000 </r>
       <r>    -7.1742     0.0000    10.0000 </r>
       <r>    -7.1464     0.0000    10.0000 </r>
       <r>    -7.1187     0.0000    10.0000 </r>
       <r>    -7.0909     0.0000    10.0000 </r>
       <r>    -7.0631     0.0000    10.0000 </r>
       <r>    -7.0353     0.0000    10.0000 </r>
       <r>    -7.0075     0.0000    10.0000 </r>
       <r>    -6.9797     0.0000    10.0000 </r>
       <r>    -6.9520     0.0000    10.0000 </r>
       <r>    -6.9242     0.0000    10.0000 </r>
       <r>    -6.8964     0.0000    10.0000 </r>
       <r>    -6.8686     0.0000    10.0000 </r>
       <r>    -6.8408     0.0000    10.0000 </r>
       <r>    -6.8130     0.0000    10.0000 </r>
       <r>    -6.7852     0.0000    10.0000 </r>
       <r>    -6.7575     0.0000    10.0000 </r>
       <r>    -6.7297     0.0000    10.0000 </r>
       <r>    -6.7019     0.0000    10.0000 </r>
       <r>    -6.6741     0.0000    10.0000 </r>
       <r>    -6.6463     0.0000    10.0000 </r>
       <r>    -6.6185     0.0000    10.0000 </r>
       <r>    -6.5908     0.0000    10.0000 </r>
       <r>    -6.5630     0.0000    10.0000 </r>
       <r>    -6.5352     0.0000    10.0000 </r>
       <r>    -6.5074     0.0043    10.0000 </r>
       <r>    -6.4796     0.0156    10.0003 </r>
       <r>    -6.4518     0.0340    10.0010 </r>
       <r>    -6.4240     0.0593    10.0023 </r>
       <r>    -6.3963     0.0917    10.0043 </r>
       <r>    -6.3685     0.1312    10.0074 </r>
       <r>    -6.3407     0.1776    10.0117 </r>
       <r>    -6.3129     0.2312    10.0174 </r>
       <r>    -6.2851     0.2131    10.0235 </r>
       <r>    -6.2573     0.2078    10.0293 </r>
       <r>    -6.2296     0.2170    10.0352 </r>
       <r>    -6.2018     0.2303    10.0414 </r>
       <r>    -6.1740     0.2438    10.0480 </r>
       <r>    -6.1462     0.2577    10.0550 </r>
       <r>    -6.1184     0.2719    10.0623 </r>
       <r>    -6.0906     0.2864    10.0701 </r>
       <r>    -6.0628     0.3012    10.0783 </r>
       <r>    -6.0351     0.3163    10.0868 </r>
       <r>    -6.0073     0.3317    10.0958 </r>
       <r>    -5.9795     0.3474    10.1053 </r>
       <r>    -5.9517     0.3634    10.1151 </r>
       <r>    -5.9239     0.3790    10.1255 </r>
       <r>    -5.8961     0.3936    10.1362 </r>
       <r>    -5.8684     0.4072    10.1473 </r>
       <r>    -5.8406     0.4198    10.1588 </r>
       <r>    -5.8128     0.4314    10.1706 </r>
       <r>    -5.7850     0.4420    10.1828 </r>
       <r>    -5.7572     0.4517    10.1952 </r>
       <r>    -5.7294     0.4626    10.2079 </r>
       <r>    -5.7016     0.4756    10.2209 </r>
       <r>    -5.6739     0.4898    10.2343 </r>
       <r>    -5.6461     0.5044    10.2481 </r>
       <r>    -5.6183     0.5191    10.2624 </r>
       <r>    -5.5905     0.5342    10.2770 </r>
       <r>    -5.5627     0.5495    10.2920 </r>
       <r>    -5.5349     0.5651    10.3075 </r>
       <r>    -5.5072     0.5809    10.3234 </r>
       <r>    -5.4794     0.5970    10.3398 </r>
       <r>    -5.4516     0.6133    10.3566 </r>
       <r>    -5.4238     0.6299    10.3739 </r>
       <r>    -5.3960     0.6467    10.3916 </r>
       <r>    -5.3682     0.6638    10.4098 </r>
       <r>    -5.3404     0.6812    10.4285 </r>
       <r>    -5.3127     0.6988    10.4477 </r>
       <r>    -5.2849     0.7167    10.4673 </r>
       <r>    -5.2571     0.7419    10.4876 </r>
       <r>    -5.2293     0.7711    10.5086 </r>
       <r>    -5.2015     0.8028    10.5305 </r>
       <r>    -5.1737     0.8369    10.5532 </r>
       <r>    -5.1460     0.8728    10.5770 </r>
       <r>    -5.1182     0.9105    10.6018 </r>
       <r>    -5.0904     0.9501    10.6276 </r>
       <r>    -5.0626     0.9916    10.6546 </r>
       <r>    -5.0348     1.0350    10.6827 </r>
       <r>    -5.0070     1.0920    10.7122 </r>
       <r>    -4.9792     1.1942    10.7438 </r>
       <r>    -4.9515     1.3038    10.7785 </r>
       <r>    -4.9237     1.3922    10.8160 </r>
       <r>    -4.8959     1.4593    10.8557 </r>
       <r>    -4.8681     1.5050    10.8969 </r>
       <r>    -4.8403     1.5295    10.9391 </r>
       <r>    -4.8125     1.5326    10.9817 </r>
       <r>    -4.7848     1.5143    11.0241 </r>
       <r>    -4.7570     1.4747    11.0657 </r>
       <r>    -4.7292     1.4259    11.1059 </r>
       <r>    -4.7014     1.5170    11.1468 </r>
       <r>    -4.6736     1.6110    11.1902 </r>
       <r>    -4.6458     1.6903    11.2362 </r>
       <r>    -4.6180     1.7304    11.2838 </r>
       <r>    -4.5903     1.7312    11.3319 </r>
       <r>    -4.5625     1.7193    11.3798 </r>
       <r>    -4.5347     1.7108    11.4275 </r>
       <r>    -4.5069     1.7023    11.4749 </r>
       <r>    -4.4791     1.6940    11.5221 </r>
       <r>    -4.4513     1.6857    11.5690 </r>
       <r>    -4.4236     1.6839    11.6158 </r>
       <r>    -4.3958     1.7095    11.6629 </r>
       <r>    -4.3680     1.7538    11.7109 </r>
       <r>    -4.3402     1.8185    11.7604 </r>
       <r>    -4.3124     2.1495    11.8163 </r>
       <r>    -4.2846     2.1672    11.8770 </r>
       <r>    -4.2568     1.8715    11.9338 </r>
       <r>    -4.2291     1.2626    11.9781 </r>
       <r>    -4.2013     0.2164    12.0000 </r>
       <r>    -4.1735     0.0000    12.0000 </r>
       <r>    -4.1457     0.0000    12.0000 </r>
       <r>    -4.1179     0.0000    12.0000 </r>
       <r>    -4.0901     0.0000    12.0000 </r>
       <r>    -4.0624     0.0000    12.0000 </r>
       <r>    -4.0346     0.0000    12.0000 </r>
       <r>    -4.0068     0.0000    12.0000 </r>
       <r>    -3.9790     0.0000    12.0000 </r>
       <r>    -3.9512     0.0000    12.0000 </r>
       <r>    -3.9234     0.0000    12.0000 </r>
       <r>    -3.8956     0.0000    12.0000 </r>
       <r>    -3.8679     0.0000    12.0000 </r>
       <r>    -3.8401     0.0000    12.0000 </r>
       <r>    -3.8123     0.0000    12.0000 </r>
       <r>    -3.7845     0.0000    12.0000 </r>
       <r>    -3.7567     0.0000    12.0000 </r>
       <r>    -3.7289     0.0000    12.0000 </r>
       <r>    -3.7012     0.0000    12.0000 </r>
       <r>    -3.6734     0.0000    12.0000 </r>
       <r>    -3.6456     0.0000    12.0000 </r>
       <r>    -3.6178     0.0000    12.0000 </r>
       <r>    -3.5900     0.0000    12.0000 </r>
       <r>    -3.5622     0.0000    12.0000 </r>
       <r>    -3.5344     0.0000    12.0000 </r>
       <r>    -3.5067     0.0000    12.0000 </r>
       <r>    -3.4789     0.0000    12.0000 </r>
       <r>    -3.4511     0.0000    12.0000 </r>
       <r>    -3.4233     0.0000    12.0000 </r>
       <r>    -3.3955     0.0000    12.0000 </r>
       <r>    -3.3677     0.0000    12.0000 </r>
       <r>    -3.3400     0.0000    12.0000 </r>
       <r>    -3.3122     0.0000    12.0000 </r>
       <r>    -3.2844     0.0000    12.0000 </r>
       <r>    -3.2566     0.0000    12.0000 </r>
       <r>    -3.2288     0.0000    12.0000 </r>
       <r>    -3.2010     0.0000    12.0000 </r>
       <r>    -3.1732     0.0000    12.0000 </r>
       <r>    -3.1455     0.0000    12.0000 </r>
       <r>    -3.1177     0.0000    12.0000 </r>
       <r>    -3.0899     0.0000    12.0000 </r>
       <r>    -3.0621     0.0000    12.0000 </r>
       <r>    -3.0343     0.0000    12.0000 </r>
       <r>    -3.0065     0.0000    12.0000 </r>
       <r>    -2.9788     0.0000    12.0000 </r>
       <r>    -2.9510     0.0000    12.0000 </r>
       <r>    -2.9232     0.0000    12.0000 </r>
       <r>    -2.8954     0.0000    12.0000 </r>
       <r>    -2.8676     0.0000    12.0000 </r>
       <r>    -2.8398     0.0000    12.0000 </r>
       <r>    -2.8120     0.0000    12.0000 </r>
       <r>    -2.7843     0.0000    12.0000 </r>
       <r>    -2.7565     0.0000    12.0000 </r>
       <r>    -2.7287     0.0000    12.0000 </r>
       <r>    -2.7009     0.0000    12.0000 </r>
       <r>    -2.6731     0.0000    12.0000 </r>
       <r>    -2.6453     0.0000    12.0000 </r>
       <r>    -2.6176     0.0000    12.0000 </r>
       <r>    -2.5898     0.0000    12.0000 </r>
       <r>    -2.5620     0.0000    12.0000 </r>
       <r>    -2.5342     0.0000    12.0000 </r>
       <r>    -2.5064     0.0000    12.0000 </r>
       <r>    -2.4786     0.0000    12.0000 </r>
       <r>    -2.4508     0.0000    12.0000 </r>
       <r>    -2.4231     0.0000    12.0000 </r>
       <r>    -2.3953     0.0000    12.0000 </r>
       <r>    -2.3675     0.0000    12.0000 </r>
       <r>    -2.3397     0.0000    12.0000 </r>
       <r>    -2.3119     0.0000    12.0000 </r>
       <r>    -2.2841     0.0000    12.0000 </r>
       <r>    -2.2564     0.0000    12.0000 </r>
       <r>    -2.2286     0.0000    12.0000 </r>
       <r>    -2.2008     0.0000    12.0000 </r>
       <r>    -2.1730     0.0000    12.0000 </r>
       <r>    -2.1452     0.0000    12.0000 </r>
       <r>    -2.1174     0.0000    12.0000 </r>
       <r>    -2.0896     0.0000    12.0000 </r>
       <r>    -2.0619     0.0000    12.0000 </r>
       <r>    -2.0341     0.0000    12.0000 </r>
       <r>    -2.0063     0.0000    12.0000 </r>
       <r>    -1.9785     0.0000    12.0000 </r>
       <r>    -1.9507     0.0000    12.0000 </r>
       <r>    -1.9229     0.0000    12.0000 </r>
       <r>    -1.8952     0.0000    12.0000 </r>
       <r>    -1.8674     0.0000    12.0000 </r>
       <r>    -1.8396     0.0000    12.0000 </r>
       <r>    -1.8118     0.0000    12.0000 </r>
       <r>    -1.7840     0.0000    12.0000 </r>
       <r>    -1.7562     0.0000    12.0000 </r>
       <r>    -1.7284     0.0000    12.0000 </r>
       <r>    -1.7007     0.0000    12.0000 </r>
       <r>    -1.6729     0.0000    12.0000 </r>
       <r>    -1.6451     0.0000    12.0000 </r>
       <r>    -1.6173     0.0000    12.0000 </r>
       <r>    -1.5895     0.0000    12.0000 </r>
       <r>    -1.5617     0.0000    12.0000 </r>
       <r>    -1.5340     0.0000    12.0000 </r>
       <r>    -1.5062     0.0000    12.0000 </r>
       <r>    -1.4784     0.0000    12.0000 </r>
       <r>    -1.4506     0.0000    12.0000 </r>
       <r>    -1.4228     0.0000    12.0000 </r>
       <r>    -1.3950     0.0000    12.0000 </r>
       <r>    -1.3672     0.0000    12.0000 </r>
       <r>    -1.3395     0.0000    12.0000 </r>
       <r>    -1.3117     0.0000    12.0000 </r>
       <r>    -1.2839     0.0000    12.0000 </r>
       <r>    -1.2561     0.0000    12.0000 </r>
       <r>    -1.2283     0.0000    12.0000 </r>
       <r>    -1.2005     0.0000    12.0000 </r>
       <r>    -1.1728     0.0000    12.0000 </r>
       <r>    -1.1450     0.0000    12.0000 </r>
       <r>    -1.1172     0.0000    12.0000 </r>
       <r>    -1.0894     0.0000    12.0000 </r>
       <r>    -1.0616     0.0000    12.0000 </r>
       <r>    -1.0338     0.0000    12.0000 </r>
       <r>    -1.0060     0.0000    12.0000 </r>
       <r>    -0.9783     0.0000    12.0000 </r>
       <r>    -0.9505     0.0000    12.0000 </r>
       <r>    -0.9227     0.0000    12.0000 </r>
       <r>    -0.8949     0.0000    12.0000 </r>
       <r>    -0.8671     0.0000    12.0000 </r>
       <r>    -0.8393     0.0000    12.0000 </r>
       <r>    -0.8116     0.0179    12.0000 </r>
       <r>    -0.7838     0.1980    12.0029 </r>
       <r>    -0.7560     0.4363    12.0116 </r>
       <r>    -0.7282     0.7328    12.0277 </r>
       <r>    -0.7004     1.1503    12.0529 </r>
       <r>    -0.6726     3.0626    12.1094 </r>
       <r>    -0.6448     3.5492    12.1996 </r>
       <r>    -0.6171     3.8312    12.3031 </r>
       <r>    -0.5893     3.4673    12.4061 </r>
       <r>    -0.5615     3.3771    12.5010 </r>
       <r>    -0.5337     3.1677    12.5924 </r>
       <r>    -0.5059     2.7884    12.6755 </r>
       <r>    -0.4781     2.2391    12.7457 </r>
       <r>    -0.4504     1.7309    12.7994 </r>
       <r>    -0.4226     1.5644    12.8451 </r>
       <r>    -0.3948     1.4192    12.8865 </r>
       <r>    -0.3670     1.2952    12.9242 </r>
       <r>    -0.3392     1.1924    12.9587 </r>
       <r>    -0.3114     1.1109    12.9906 </r>
       <r>    -0.2836     1.0506    13.0206 </r>
       <r>    -0.2559     1.0069    13.0492 </r>
       <r>    -0.2281     0.9664    13.0766 </r>
       <r>    -0.2003     0.9283    13.1029 </r>
       <r>    -0.1725     0.8926    13.1282 </r>
       <r>    -0.1447     0.8592    13.1525 </r>
       <r>    -0.1169     0.8282    13.1759 </r>
       <r>    -0.0892     0.7995    13.1985 </r>
       <r>    -0.0614     0.7730    13.2204 </r>
       <r>    -0.0336     0.7489    13.2415 </r>
       <r>    -0.0058     0.7263    13.2620 </r>
       <r>     0.0220     0.7043    13.2819 </r>
       <r>     0.0498     0.6829    13.3012 </r>
       <r>     0.0776     0.6620    13.3198 </r>
       <r>     0.1053     0.6417    13.3380 </r>
       <r>     0.1331     0.6220    13.3555 </r>
       <r>     0.1609     0.6028    13.3725 </r>
       <r>     0.1887     0.5841    13.3890 </r>
       <r>     0.2165     0.5660    13.4050 </r>
       <r>     0.2443     0.5485    13.4205 </r>
       <r>     0.2720     0.5315    13.4355 </r>
       <r>     0.2998     0.5151    13.4500 </r>
       <r>     0.3276     0.4926    13.4641 </r>
       <r>     0.3554     0.4584    13.4773 </r>
       <r>     0.3832     0.4294    13.4896 </r>
       <r>     0.4110     0.4055    13.5012 </r>
       <r>     0.4388     0.3868    13.5122 </r>
       <r>     0.4665     0.3732    13.5227 </r>
       <r>     0.4943     0.3648    13.5330 </r>
       <r>     0.5221     0.3600    13.5430 </r>
       <r>     0.5499     0.3554    13.5530 </r>
       <r>     0.5777     0.3508    13.5628 </r>
       <r>     0.6055     0.3463    13.5725 </r>
       <r>     0.6332     0.3418    13.5820 </r>
       <r>     0.6610     0.3373    13.5915 </r>
       <r>     0.6888     0.3329    13.6008 </r>
       <r>     0.7166     0.3286    13.6100 </r>
       <r>     0.7444     0.3242    13.6190 </r>
       <r>     0.7722     0.3199    13.6280 </r>
       <r>     0.8000     0.3157    13.6368 </r>
       <r>     0.8277     0.3115    13.6455 </r>
       <r>     0.8555     0.3073    13.6541 </r>
       <r>     0.8833     0.3032    13.6626 </r>
       <r>     0.9111     0.2991    13.6710 </r>
       <r>     0.9389     0.2950    13.6792 </r>
       <r>     0.9667     0.2909    13.6874 </r>
       <r>     0.9944     0.2868    13.6954 </r>
       <r>     1.0222     0.2826    13.7033 </r>
       <r>     1.0500     0.2782    13.7111 </r>
       <r>     1.0778     0.2737    13.7188 </r>
       <r>     1.1056     0.2690    13.7263 </r>
       <r>     1.1334     0.2640    13.7337 </r>
       <r>     1.1612     0.2588    13.7410 </r>
       <r>     1.1889     0.2534    13.7481 </r>
       <r>     1.2167     0.2479    13.7550 </r>
       <r>     1.2445     0.2421    13.7618 </r>
       <r>     1.2723     0.2361    13.7685 </r>
       <r>     1.3001     0.2298    13.7750 </r>
       <r>     1.3279     0.2234    13.7813 </r>
       <r>     1.3556     0.2168    13.7874 </r>
       <r>     1.3834     0.2099    13.7933 </r>
       <r>     1.4112     0.2029    13.7990 </r>
       <r>     1.4390     0.1956    13.8046 </r>
       <r>     1.4668     0.1888    13.8099 </r>
       <r>     1.4946     0.1823    13.8151 </r>
       <r>     1.5224     0.1761    13.8200 </r>
       <r>     1.5501     0.1702    13.8249 </r>
       <r>     1.5779     0.1646    13.8295 </r>
       <r>     1.6057     0.1594    13.8340 </r>
[...]
        <r>  0.0019  0.0016  0.0045  0.0013  0.0000  0.0000  0.0000  0.0000  0.0000 </r>
       </set>
       <set comment="band 24">
        <r>  0.0029  0.0051  0.0014  0.0298  0.0387  0.0138  0.0134  0.0010  0.0533 </r>
        <r>  0.0127  0.0213  0.0101  0.0037  0.0000  0.0000  0.0000  0.0000  0.0000 </r>
       </set>
       <set comment="band 25">
        <r>  0.0230  0.0114  0.0315  0.0002  0.0061  0.0047  0.0322  0.0705  0.0347 </r>
        <r>  0.0016  0.0076  0.0334  0.0014  0.0000  0.0000  0.0000  0.0000  0.0000 </r>
       </set>
       <set comment="band 26">
        <r>  0.0023  0.0347  0.0097  0.0253  0.0387  0.0293  0.0025  0.0264  0.0016 </r>
        <r>  0.0132  0.0004  0.0057  0.0029  0.0000  0.0000  0.0000  0.0000  0.0000 </r>
       </set>
       <set comment="band 27">
        <r>  0.0059  0.0336  0.0017  0.0012  0.0468  0.0319  0.0516  0.0083  0.0095 </r>
        <r>  0.0284  0.0035  0.0139  0.0059  0.0000  0.0000  0.0000  0.0000  0.0000 </r>
       </set>
       <set comment="band 28">
        <r>  0.0507  0.0005  0.0153  0.0021  0.0181  0.0129  0.0251  0.0083  0.0205 </r>
        <r>  0.0210  0.0058  0.0019  0.0010  0.0000  0.0000  0.0000  0.0000  0.0000 </r>
       </set>
       <set comment="band 29">
        <r>  0.0004  0.0137  0.0000  0.0245  0.0409  0.0091  0.0096  0.0139  0.0020 </r>
        <r>  0.0015  0.0115  0.0048  0.0215  0.0000  0.0000  0.0000  0.0000  0.0000 </r>
       </set>
       <set comment="band 30">
        <r>  0.0171  0.0170  0.0087  0.0006  0.0118  0.0108  0.0422  0.0148  0.0534 </r>
        <r>  0.0147  0.0038  0.0046  0.0023  0.0000  0.0000  0.0000  0.0000  0.0000 </r>
       </set>
       <set comment="band 31">
        <r>  0.0178  0.0208  0.0304  0.0048  0.0109  0.0025  0.0011  0.0086  0.0607 </r>
        <r>  0.0054  0.0007  0.0066  0.0039  0.0000  0.0000  0.0000  0.0000  0.0000 </r>
       </set>
       <set comment="band 32">
        <r>  0.0276  0.0094  0.0650  0.0194  0.0256  0.0435  0.0371  0.0014  0.0072 </r>
        <r>  0.0035  0.0040  0.0003  0.0050  0.0000  0.0000  0.0000  0.0000  0.0000 </r>
       </set>
       <set comment="band 33">
        <r>  0.0039  0.0038  0.0218  0.0124  0.0317  0.0032  0.0128  0.0415  0.0066 </r>
        <r>  0.0038  0.0018  0.0264  0.0107  0.0000  0.0000  0.0000  0.0000  0.0000 </r>
       </set>
       <set comment="band 34">
        <r>  0.0383  0.0290  0.0010  0.0099  0.0205  0.0137  0.0242  0.0463  0.0056 </r>
        <r>  0.0189  0.0052  0.0098  0.0046  0.0000  0.0000  0.0000  0.0000  0.0000 </r>
       </set>
       <set comment="band 35">
        <r>  0.0525  0.0333  0.0177  0.0088  0.0442  0.0212  0.0030  0.0294  0.0018 </r>
        <r>  0.0002  0.0162  0.0007  0.0005  0.0000  0.0000  0.0000  0.0000  0.0000 </r>
       </set>
       <set comment="band 36">
        <r>  0.0117  0.0028  0.0048  0.0005  0.0241  0.0812  0.0567  0.0219  0.0328 </r>
        <r>  0.0024  0.0253  0.0301  0.0015  0.0000  0.0000  0.0000  0.0000  0.0000 </r>
       </set>
      </set>
      <set comment="kpoint 19">
       <set comment="band 1">
        <r>  0.0001  0.0005  0.0002  0.0010  0.1994  0.0223  0.5950  0.0406  0.0619 </r>
        <r>  0.0313  0.0001  0.0000  0.0001  0.0000  0.0000  0.0000  0.0000  0.0000 </r>
       </set>
       <set comment="band 2">
        <r>  0.0000  0.0001  0.0001  0.0000  0.1123  0.2063  0.0996  0.2171  0.3397 </r>
        <r>  0.0002  0.0007  0.0011  0.0004  0.0000  0.0000  0.0000  0.0000  0.0000 </r>
       </set>
       <set comment="band 3">
        <r>  0.0000  0.0001  0.0001  0.0000  0.1452  0.1353  0.0481  0.2655  0.3813 </r>
        <r>  0.0000  0.0013  0.0010  0.0007  0.0000  0.0000  0.0000  0.0000  0.0000 </r>
       </set>
       <set comment="band 4">
        <r>  0.0001  0.0000  0.0000  0.0000  0.4956  0.0303  0.1952  0.0685  0.1863 </r>
        <r>  0.0000  0.0002  0.0001  0.0003  0.0000  0.0000  0.0000  0.0000  0.0000 </r>
       </set>
       <set comment="band 5">
        <r>  0.0000  0.0000  0.0000  0.0000  0.0101  0.5831  0.0027  0.3839  0.0022 </r>
        <r>  0.0000  0.0000  0.0000  0.0000  0.0000  0.0000  0.0000  0.0000  0.0000 </r>
       </set>
       <set comment="band 6">
        <r>  0.0266  0.0138  0.0044  0.0347  0.0136  0.0025  0.0400  0.0052  0.0076 </r>
        <r>  0.4668  0.0005  0.0001  0.0018  0.0000  0.0000  0.0000  0.0000  0.0000 </r>
       </set>
       <set comment="band 7">
        <r>  0.4101  0.0030  0.0025  0.0032  0.0044  0.0000  0.0044  0.0003  0.0001 </r>
        <r>  0.0243  0.0322  0.0118  0.0909  0.0000  0.0000  0.0000  0.0000  0.0000 </r>
       </set>
       <set comment="band 8">
        <r>  0.0088  0.0276  0.0728  0.0670  0.0043  0.0041  0.0011  0.0008  0.0017 </r>
        <r>  0.0016  0.0557  0.1135  0.0755  0.0000  0.0000  0.0000  0.0000  0.0000 </r>
       </set>
       <set comment="band 9">
        <r>  0.0001  0.0868  0.0721  0.0127  0.0031  0.0012  0.0015  0.0031  0.0049 </r>
        <r>  0.0000  0.1348  0.1138  0.0120  0.0000  0.0000  0.0000  0.0000  0.0000 </r>
       </set>
       <set comment="band 10">
        <r>  0.0135  0.0543  0.0070  0.0655  0.0105  0.0016  0.0349  0.0013  0.0045 </r>
        <r>  0.0425  0.0342  0.0354  0.0045  0.0000  0.0000  0.0000  0.0000  0.0000 </r>
       </set>
       <set comment="band 11">
        <r>  0.1845  0.0012  0.0075  0.0112  0.0219  0.0007  0.0098  0.0005  0.0041 </r>
        <r>  0.0094  0.0419  0.0344  0.0930  0.0000  0.0000  0.0000  0.0000  0.0000 </r>
       </set>
       <set comment="band 12">
        <r>  0.0201  0.0750  0.0704  0.0160  0.0093  0.0159  0.0031  0.0022  0.0070 </r>
        <r>  0.0321  0.0705  0.0327  0.0061  0.0000  0.0000  0.0000  0.0000  0.0000 </r>
       </set>
       <set comment="band 13">
        <r>  0.0238  0.0332  0.0683  0.0431  0.0043  0.0011  0.0041  0.0063  0.0125 </r>
        <r>  0.0061  0.0084  0.0400  0.1192  0.0000  0.0000  0.0000  0.0000  0.0000 </r>
       </set>
       <set comment="band 14">
        <r>  0.0020  0.0776  0.0885  0.0151  0.0042  0.0103  0.0002  0.0151  0.0210 </r>
        <r>  0.0030  0.0757  0.0652  0.0808  0.0000  0.0000  0.0000  0.0000  0.0000 </r>
       </set>
       <set comment="band 15">
        <r>  0.0032  0.0036  0.0225  0.0949  0.0130  0.0106  0.0186  0.0384  0.0062 </r>
        <r>  0.0313  0.0116  0.0002  0.0215  0.0000  0.0000  0.0000  0.0000  0.0000 </r>
       </set>
       <set comment="band 16">
        <r>  0.0008  0.0534  0.0556  0.0180  0.0005  0.0072  0.0000  0.0008  0.0010 </r>
        <r>  0.0147  0.0064  0.0209  0.0457  0.0000  0.0000  0.0000  0.0000  0.0000 </r>
       </set>
       <set comment="band 17">
        <r>  0.0000  0.0123  0.0132  0.0311  0.0004  0.0230  0.0044  0.0114  0.0297 </r>
        <r>  0.0009  0.0290  0.0362  0.0215  0.0000  0.0000  0.0000  0.0000  0.0000 </r>
       </set>
       <set comment="band 18">
        <r>  0.0178  0.0179  0.0130  0.0178  0.0064  0.0058  0.0015  0.0118  0.0140 </r>
        <r>  0.0020  0.0028  0.0089  0.0078  0.0000  0.0000  0.0000  0.0000  0.0000 </r>
       </set>
       <set comment="band 19">
        <r>  0.0023  0.0659  0.0031  0.0714  0.0027  0.0181  0.0090  0.0203  0.0036 </r>
        <r>  0.0245  0.0462  0.0372  0.0009  0.0000  0.0000  0.0000  0.0000  0.0000 </r>
       </set>
       <set comment="band 20">
        <r>  0.0277  0.0175  0.0236  0.0079  0.0307  0.0039  0.0133  0.0308  0.0099 </r>
        <r>  0.0248  0.0095  0.0052  0.0004  0.0000  0.0000  0.0000  0.0000  0.0000 </r>
       </set>
       <set comment="band 21">
        <r>  0.0007  0.0054  0.0041  0.0241  0.0025  0.1055  0.0005  0.0326  0.0311 </r>
        <r>  0.0009  0.0162  0.0115  0.0002  0.0000  0.0000  0.0000  0.0000  0.0000 </r>
       </set>
       <set comment="band 22">
        <r>  0.0075  0.0014  0.0071  0.0092  0.0042  0.0549  0.0021  0.0596  0.0245 </r>
        <r>  0.0004  0.0025  0.0012  0.0011  0.0000  0.0000  0.0000  0.0000  0.0000 </r>
       </set>
       <set comment="band 23">
        <r>  0.0159  0.0077  0.0046  0.0133  0.0007  0.0080  0.0009  0.0019  0.0010 </r>
        <r>  0.0015  0.0010  0.0010  0.0016  0.0000  0.0000  0.0000  0.0000  0.0000 </r>
       </set>
       <set comment="band 24">
        <r>  0.0019  0.0100  0.0236  0.0852  0.0025  0.0172  0.0037  0.0185  0.0276 </r>
        <r>  0.0038  0.0032  0.0024  0.0019  0.0000  0.0000  0.0000  0.0000  0.0000 </r>
       </set>
       <set comment="band 25">
        <r>  0.0560  0.0094  0.0110  0.0023  0.0145  0.0013  0.0035  0.0411  0.0244 </r>
        <r>  0.0004  0.0007  0.0026  0.0056  0.0000  0.0000  0.0000  0.0000  0.0000 </r>
       </set>
       <set comment="band 26">
        <r>  0.0139  0.0138  0.0187  0.0320  0.0416  0.0101  0.0278  0.0222  0.0670 </r>
        <r>  0.0012  0.0110  0.0096  0.0028  0.0000  0.0000  0.0000  0.0000  0.0000 </r>
       </set>
       <set comment="band 27">
        <r>  0.0212  0.0142  0.0192  0.0051  0.0154  0.0432  0.0142  0.0241  0.0540 </r>
        <r>  0.0113  0.0051  0.0076  0.0025  0.0000  0.0000  0.0000  0.0000  0.0000 </r>
       </set>
       <set comment="band 28">
        <r>  0.0009  0.0171  0.0137  0.0011  0.0177  0.0016  0.0563  0.0293  0.0276 </r>
        <r>  0.0631  0.0065  0.0188  0.0152  0.0000  0.0000  0.0000  0.0000  0.0000 </r>
       </set>
       <set comment="band 29">
        <r>  0.0194  0.0714  0.0240  0.0120  0.1160  0.0282  0.0352  0.0276  0.0305 </r>
        <r>  0.0001  0.0062  0.0099  0.0041  0.0000  0.0000  0.0000  0.0000  0.0000 </r>
       </set>
       <set comment="band 30">
        <r>  0.0179  0.0056  0.0089  0.0039  0.0090  0.0007  0.0167  0.0029  0.0007 </r>
        <r>  0.0024  0.0017  0.0018  0.0002  0.0000  0.0000  0.0000  0.0000  0.0000 </r>
       </set>
       <set comment="band 31">
        <r>  0.0139  0.0014  0.0099  0.0241  0.0182  0.0069  0.0392  0.0118  0.0156 </r>
        <r>  0.0003  0.0139  0.0009  0.0132  0.0000  0.0000  0.0000  0.0000  0.0000 </r>
       </set>
       <set comment="band 32">
        <r>  0.0000  0.0294  0.0436  0.0144  0.0365  0.0034  0.0528  0.0061  0.0243 </r>
        <r>  0.0001  0.0017  0.0034  0.0122  0.0000  0.0000  0.0000  0.0000  0.0000 </r>
       </set>
       <set comment="band 33">
        <r>  0.0942  0.0098  0.0195  0.0105  0.0243  0.0139  0.0266  0.0078  0.0196 </r>
        <r>  0.0144  0.0085  0.0090  0.0038  0.0000  0.0000  0.0000  0.0000  0.0000 </r>
       </set>
       <set comment="band 34">
        <r>  0.0102  0.0013  0.0049  0.0050  0.0004  0.0276  0.0001  0.0111  0.0051 </r>
        <r>  0.0003  0.0189  0.0278  0.0149  0.0000  0.0000  0.0000  0.0000  0.0000 </r>
       </set>
       <set comment="band 35">
        <r>  0.0631  0.0055  0.0153  0.0121  0.0338  0.0360  0.0374  0.0252  0.0060 </r>
        <r>  0.0031  0.0173  0.0219  0.0059  0.0000  0.0000  0.0000  0.0000  0.0000 </r>
       </set>
       <set comment="band 36">
        <r>  0.0215  0.0057  0.0043  0.0016  0.0446  0.0014  0.0506  0.0355  0.0136 </r>
        <r>  0.0152  0.0252  0.0370  0.0119  0.0000  0.0000  0.0000  0.0000  0.0000 </r>
       </set>
      </set>
      <set comment="kpoint 20">
       <set comment="band 1">
        <r>  0.0001  0.0008  0.0002  0.0010  0.1424  0.0292  0.4560  0.0584  0.2324 </r>
        <r>  0.0325  0.0000  0.0000  0.0000  0.0000  0.0000  0.0000  0.0000  0.0000 </r>
       </set>
       <set comment="band 2">
        <r>  0.0000  0.0001  0.0000  0.0000  0.0611  0.0767  0.3439  0.1533  0.3389 </r>
        <r>  0.0001  0.0008  0.0009  0.0006  0.0000  0.0000  0.0000  0.0000  0.0000 </r>
       </set>
       <set comment="band 3">
        <r>  0.0000  0.0001  0.0002  0.0000  0.0997  0.2150  0.0323  0.4024  0.2262 </r>
        <r>  0.0000  0.0006  0.0016  0.0009  0.0000  0.0000  0.0000  0.0000  0.0000 </r>
       </set>
       <set comment="band 4">
        <r>  0.0000  0.0000  0.0000  0.0000  0.5875  0.0720  0.0995  0.0657  0.1527 </r>
        <r>  0.0000  0.0000  0.0000  0.0001  0.0000  0.0000  0.0000  0.0000  0.0000 </r>
       </set>
       <set comment="band 5">
        <r>  0.0000  0.0000  0.0000  0.0000  0.0762  0.5842  0.0165  0.2943  0.0095 </r>
        <r>  0.0000  0.0001  0.0001  0.0001  0.0000  0.0000  0.0000  0.0000  0.0000 </r>
       </set>
       <set comment="band 6">
        <r>  0.0115  0.0226  0.0049  0.0274  0.0131  0.0024  0.0325  0.0047  0.0231 </r>
        <r>  0.4842  0.0003  0.0001  0.0002  0.0000  0.0000  0.0000  0.0000  0.0000 </r>
       </set>
       <set comment="band 7">
        <r>  0.4364  0.0022  0.0000  0.0041  0.0013  0.0004  0.0000  0.0003  0.0008 </r>
        <r>  0.0074  0.0573  0.0094  0.0679  0.0000  0.0000  0.0000  0.0000  0.0000 </r>
       </set>
       <set comment="band 8">
        <r>  0.0013  0.0943  0.0010  0.0709  0.0038  0.0007  0.0051  0.0005  0.0016 </r>
        <r>  0.0003  0.1229  0.0008  0.1009  0.0000  0.0000  0.0000  0.0000  0.0000 </r>
       </set>
       <set comment="band 9">
        <r>  0.0029  0.0091  0.1412  0.0182  0.0022  0.0051  0.0012  0.0064  0.0006 </r>
        <r>  0.0008  0.0087  0.2375  0.0155  0.0000  0.0000  0.0000  0.0000  0.0000 </r>
       </set>
       <set comment="band 10">
        <r>  0.1002  0.0211  0.0091  0.0417  0.0005  0.0022  0.0396  0.0032  0.0013 </r>
        <r>  0.0273  0.0176  0.0779  0.0351  0.0000  0.0000  0.0000  0.0000  0.0000 </r>
       </set>
       <set comment="band 11">
        <r>  0.1173  0.0040  0.0014  0.0078  0.0111  0.0035  0.0091  0.0039  0.0066 </r>
        <r>  0.0000  0.1486  0.0005  0.1106  0.0000  0.0000  0.0000  0.0000  0.0000 </r>
       </set>
       <set comment="band 12">
        <r>  0.0155  0.0324  0.1229  0.0461  0.0030  0.0054  0.0001  0.0081  0.0171 </r>
        <r>  0.0483  0.0137  0.0441  0.0223  0.0000  0.0000  0.0000  0.0000  0.0000 </r>
       </set>
       <set comment="band 13">
        <r>  0.0039  0.0894  0.0088  0.0540  0.0302  0.0107  0.0001  0.0107  0.0058 </r>
        <r>  0.0201  0.0092  0.0013  0.0178  0.0000  0.0000  0.0000  0.0000  0.0000 </r>
       </set>
       <set comment="band 14">
        <r>  0.0011  0.0558  0.1144  0.0480  0.0035  0.0042  0.0090  0.0068  0.0271 </r>
        <r>  0.0159  0.0609  0.0654  0.0753  0.0000  0.0000  0.0000  0.0000  0.0000 </r>
       </set>
       <set comment="band 15">
        <r>  0.0025  0.0295  0.0407  0.0148  0.0105  0.0368  0.0000  0.0326  0.0036 </r>
        <r>  0.0146  0.0189  0.0055  0.0156  0.0000  0.0000  0.0000  0.0000  0.0000 </r>
       </set>
       <set comment="band 16">
        <r>  0.0000  0.0703  0.0019  0.0724  0.0016  0.0102  0.0231  0.0132  0.0010 </r>
        <r>  0.0047  0.0404  0.0002  0.0722  0.0000  0.0000  0.0000  0.0000  0.0000 </r>
       </set>
       <set comment="band 17">
        <r>  0.0004  0.0192  0.0439  0.0285  0.0030  0.0078  0.0003  0.0043  0.0012 </r>
        <r>  0.0216  0.0265  0.0401  0.0176  0.0000  0.0000  0.0000  0.0000  0.0000 </r>
       </set>
       <set comment="band 18">
        <r>  0.0117  0.0078  0.0000  0.0081  0.0103  0.0019  0.0068  0.0015  0.0055 </r>
        <r>  0.0007  0.0044  0.0048  0.0037  0.0000  0.0000  0.0000  0.0000  0.0000 </r>
       </set>
       <set comment="band 19">
        <r>  0.0060  0.0385  0.0043  0.0765  0.0054  0.0134  0.0002  0.0128  0.0376 </r>
        <r>  0.0012  0.0301  0.0355  0.0157  0.0000  0.0000  0.0000  0.0000  0.0000 </r>
       </set>
       <set comment="band 20">
        <r>  0.0321  0.0267  0.0335  0.0141  0.0014  0.0013  0.0107  0.0015  0.0061 </r>
        <r>  0.0077  0.0386  0.0267  0.0195  0.0000  0.0000  0.0000  0.0000  0.0000 </r>
       </set>
       <set comment="band 21">
        <r>  0.0052  0.0023  0.0026  0.0018  0.0029  0.0860  0.0005  0.0780  0.0050 </r>
        <r>  0.0010  0.0039  0.0028  0.0071  0.0000  0.0000  0.0000  0.0000  0.0000 </r>
       </set>
       <set comment="band 22">
        <r>  0.0291  0.0093  0.0100  0.0159  0.0166  0.0110  0.0088  0.0218  0.0517 </r>
        <r>  0.0040  0.0032  0.0081  0.0019  0.0000  0.0000  0.0000  0.0000  0.0000 </r>
       </set>
       <set comment="band 23">
        <r>  0.0113  0.0118  0.0073  0.0211  0.0254  0.0314  0.0070  0.0195  0.0266 </r>
        <r>  0.0027  0.0004  0.0148  0.0008  0.0000  0.0000  0.0000  0.0000  0.0000 </r>
       </set>
       <set comment="band 24">
        <r>  0.0085  0.0196  0.0097  0.0139  0.0450  0.0228  0.0014  0.0167  0.0088 </r>
        <r>  0.0134  0.0014  0.0058  0.0028  0.0000  0.0000  0.0000  0.0000  0.0000 </r>
       </set>
       <set comment="band 25">
        <r>  0.0010  0.0175  0.0083  0.0109  0.0085  0.0185  0.0441  0.0355  0.0384 </r>
        <r>  0.0167  0.0003  0.0047  0.0002  0.0000  0.0000  0.0000  0.0000  0.0000 </r>
       </set>
       <set comment="band 26">
        <r>  0.0018  0.0566  0.0054  0.0362  0.1383  0.0065  0.0221  0.0051  0.0314 </r>
        <r>  0.0304  0.0014  0.0002  0.0018  0.0000  0.0000  0.0000  0.0000  0.0000 </r>
       </set>
       <set comment="band 27">
        <r>  0.0140  0.0254  0.0128  0.0431  0.0051  0.0228  0.0034  0.0440  0.0085 </r>
        <r>  0.0044  0.0029  0.0244  0.0025  0.0000  0.0000  0.0000  0.0000  0.0000 </r>
       </set>
       <set comment="band 28">
        <r>  0.0154  0.0364  0.0122  0.0205  0.0012  0.0061  0.0002  0.0038  0.0072 </r>
        <r>  0.0430  0.0008  0.0023  0.0011  0.0000  0.0000  0.0000  0.0000  0.0000 </r>
       </set>
       <set comment="band 29">
        <r>  0.0081  0.0117  0.0120  0.0170  0.0127  0.0453  0.0019  0.0293  0.0710 </r>
        <r>  0.0000  0.0004  0.0048  0.0006  0.0000  0.0000  0.0000  0.0000  0.0000 </r>
       </set>
       <set comment="band 30">
        <r>  0.0115  0.0046  0.0161  0.0091  0.0526  0.0224  0.0865  0.0328  0.0252 </r>
        <r>  0.0085  0.0091  0.0106  0.0048  0.0000  0.0000  0.0000  0.0000  0.0000 </r>
       </set>
       <set comment="band 31">
        <r>  0.0839  0.0157  0.0318  0.0153  0.0228  0.0024  0.0472  0.0024  0.0445 </r>
        <r>  0.0000  0.0007  0.0004  0.0010  0.0000  0.0000  0.0000  0.0000  0.0000 </r>
       </set>
       <set comment="band 32">
        <r>  0.0172  0.0110  0.0017  0.0061  0.0106  0.0257  0.0156  0.0134  0.0099 </r>
        <r>  0.0034  0.0092  0.0127  0.0146  0.0000  0.0000  0.0000  0.0000  0.0000 </r>
       </set>
       <set comment="band 33">
        <r>  0.0951  0.0028  0.0961  0.0014  0.0064  0.0119  0.0236  0.0117  0.0017 </r>
        <r>  0.0049  0.0002  0.0001  0.0004  0.0000  0.0000  0.0000  0.0000  0.0000 </r>
       </set>
       <set comment="band 34">
        <r>  0.0005  0.0003  0.0029  0.0002  0.0035  0.0628  0.0311  0.0400  0.0080 </r>
        <r>  0.0019  0.0112  0.0066  0.0066  0.0000  0.0000  0.0000  0.0000  0.0000 </r>
       </set>
       <set comment="band 35">
        <r>  0.0368  0.0018  0.0013  0.0009  0.0414  0.0060  0.0506  0.0114  0.0158 </r>
        <r>  0.0036  0.0076  0.0569  0.0143  0.0000  0.0000  0.0000  0.0000  0.0000 </r>
       </set>
       <set comment="band 36">
        <r>  0.0034  0.0099  0.0027  0.0157  0.0021  0.0212  0.0418  0.0226  0.0054 </r>
        <r>  0.0021  0.0086  0.0041  0.0086  0.0000  0.0000  0.0000  0.0000  0.0000 </r>
       </set>
      </set>
     </set>
    </set>
   </array>
  </projected>
 </calculation>
 <structure name="finalpos" >
  <crystal>
   <varray name="basis" >
    <v>       3.61541800       0.00000000       2.08736254 </v>
    <v>       1.20513900       3.40864864       2.08736254 </v>
    <v>       0.00000000       0.00000000       4.17472507 </v>
   </varray>
   <i name="volume">     51.44801605 </i>
   <varray name="rec_basis" >
    <v>       0.27659319      -0.09779044       0.00000000 </v>
    <v>       0.00000000       0.29337139       0.00000000 </v>
    <v>      -0.13829660      -0.09779048       0.23953673 </v>
   </varray>
  </crystal>
  <varray name="positions" >
   <v>       0.00000000       0.00000000       0.00000000 </v>
   <v>       0.25000000       0.25000000       0.25000000 </v>
  </varray>
 </structure>
</modeling>
