 vasp.6.4.2 20Jul23 (build Mar 15 2024 16:31:38) complex                        
  
 executed on             LinuxIFC date 2025.03.26  18:39:06
 running  120 mpi-ranks, on    3 nodes
 distrk:  each k-point on  120 cores,    1 groups
 distr:  one band on NCORE=  10 cores,   12 groups


--------------------------------------------------------------------------------------------------------


 INCAR:
   ALGO = Normal
   EDIFF = 1e-05
   ENAUG = 1360
   ENCUT = 680
   GGA = Pe
   HFSCREEN = 0.2
   ISMEAR = 0
   ISPIN = 2
   LAECHG = True
   LASPH = True
   LCHARG = True
   LDAU = False
   LELF = False
   LHFCALC = True
   LMAXMIX = 4
   LMIXTAU = True
   LORBIT = 11
   LREAL = False
   LVTOT = True
   LWAVE = True
   MAGMOM = 8*0.6
   NCORE = 10
   NELM = 200
   NSW = 0
   PREC = Accurate
   PRECFOCK = Fast
   SIGMA = 0.01

 POTCAR:    PAW_PBE Sn_d 06Sep2000                
 POTCAR:    PAW_PBE S 06Sep2000                   
 WARNING: For LVTOT=.TRUE., VASP.5.x writes the TOTAL local potential to the
     file LOCPOT. If you want only the Hartree contributions, use LVHAR=.TRUE.
     instead. 

 POTCAR:    PAW_PBE Sn_d 06Sep2000                
   VRHFIN =Sn: s2p2                                                                                 
   LEXCH  = PE                                                                                      
   EATOM  =  1893.1092 eV,  139.1396 Ry                                                             
                                                                                                    
   TITEL  = PAW_PBE Sn_d 06Sep2000                                                                  
   LULTRA =        F    use ultrasoft PP ?                                                          
   IUNSCR =        1    unscreen: 0-lin 1-nonlin 2-no                                               
   RPACOR =    2.300    partial core radius                                                         
   POMASS =  118.710; ZVAL   =   14.000    mass and valenz                                          
   RCORE  =    2.500    outmost cutoff radius                                                       
   RWIGS  =    2.960; RWIGS  =    1.566    wigner-seitz radius (au A)                               
   ENMAX  =  241.083; ENMIN  =  180.812 eV                                                          
   ICORE  =        3    local potential                                                             
   LCOR   =        T    correct aug charges                                                         
   LPAW   =        T    paw PP                                                                      
   EAUG   =  439.825                                                                                
   DEXC   =    0.000                                                                                
   RMAX   =    2.560    core radius for proj-oper                                                   
   RAUG   =    1.300    factor for augmentation sphere                                              
   RDEP   =    2.659    radius for radial grids                                                     
   RDEPT  =    2.046    core radius for aug-charge                                                  
                                                                                                    
   Atomic configuration                                                                             
   12 entries                                                                                       
     n  l   j            E        occ.                                                              
     1  0  0.50    -29007.2859   2.0000                                                             
     2  0  0.50     -4378.8056   2.0000                                                             
     2  1  1.50     -3930.4293   6.0000                                                             
     3  0  0.50      -845.0264   2.0000                                                             
     3  1  1.50      -698.5725   6.0000                                                             
     3  2  2.50      -473.2839  10.0000                                                             
     4  0  0.50      -133.9036   2.0000                                                             
     4  1  1.50       -89.6752   6.0000                                                             
     4  2  2.50       -25.8375  10.0000                                                             
     5  0  0.50       -10.5484   2.0000                                                             
     5  1  0.50        -3.6940   2.0000                                                             
     4  3  2.50        -2.7416   0.0000                                                             
   Description                                                                                      
     l       E           TYP  RCUT    TYP  RCUT                                                     
     2    -25.8374624     23  2.500                                                                 
     2     -5.4423304     23  2.500                                                                 
     0    -10.5483727     23  2.500                                                                 
     0     13.6058260     23  2.500                                                                 
     1     -3.6939829     23  2.500                                                                 
     1      1.9821976     23  2.500                                                                 
     3     -1.3605826      7  2.500                                                                 
  local pseudopotential read in
  partial core-charges read in
  partial kinetic energy density read in
  atomic valenz-charges read in
  non local Contribution for L=           2  read in
    real space projection operators read in
  non local Contribution for L=           2  read in
    real space projection operators read in
  non local Contribution for L=           0  read in
    real space projection operators read in
  non local Contribution for L=           0  read in
    real space projection operators read in
  non local Contribution for L=           1  read in
    real space projection operators read in
  non local Contribution for L=           1  read in
    real space projection operators read in
    PAW grid and wavefunctions read in
 
   number of l-projection  operators is LMAX  =           6
   number of lm-projection operators is LMMAX =          18
 
 POTCAR:    PAW_PBE S 06Sep2000                   
   VRHFIN =S : s2p4                                                                                 
   LEXCH  = PE                                                                                      
   EATOM  =   276.8230 eV,   20.3459 Ry                                                             
                                                                                                    
   TITEL  = PAW_PBE S 06Sep2000                                                                     
   LULTRA =        F    use ultrasoft PP ?                                                          
   IUNSCR =        1    unscreen: 0-lin 1-nonlin 2-no                                               
   RPACOR =    1.500    partial core radius                                                         
   POMASS =   32.066; ZVAL   =    6.000    mass and valenz                                          
   RCORE  =    1.900    outmost cutoff radius                                                       
   RWIGS  =    2.200; RWIGS  =    1.164    wigner-seitz radius (au A)                               
   ENMAX  =  258.689; ENMIN  =  194.016 eV                                                          
   ICORE  =        2    local potential                                                             
   LCOR   =        T    correct aug charges                                                         
   LPAW   =        T    paw PP                                                                      
   EAUG   =  335.092                                                                                
   DEXC   =    0.000                                                                                
   RMAX   =    1.942    core radius for proj-oper                                                   
   RAUG   =    1.300    factor for augmentation sphere                                              
   RDEP   =    1.954    radius for radial grids                                                     
   RDEPT  =    1.744    core radius for aug-charge                                                  
                                                                                                    
   Atomic configuration                                                                             
    6 entries                                                                                       
     n  l   j            E        occ.                                                              
     1  0  0.50     -2405.8406   2.0000                                                             
     2  0  0.50      -211.7007   2.0000                                                             
     2  1  1.50      -156.4958   6.0000                                                             
     3  0  0.50       -17.2562   2.0000                                                             
     3  1  0.50        -7.0085   4.0000                                                             
     3  2  1.50        -6.8029   0.0000                                                             
   Description                                                                                      
     l       E           TYP  RCUT    TYP  RCUT                                                     
     0    -17.2561641     23  1.900                                                                 
     0    -15.8743224     23  1.900                                                                 
     1     -7.0085400     23  1.900                                                                 
     1     -2.7779785     23  1.900                                                                 
     2     -6.8029130     23  1.900                                                                 
  local pseudopotential read in
  partial core-charges read in
  partial kinetic energy density read in
  atomic valenz-charges read in
  non local Contribution for L=           0  read in
    real space projection operators read in
  non local Contribution for L=           0  read in
    real space projection operators read in
  non local Contribution for L=           1  read in
    real space projection operators read in
  non local Contribution for L=           1  read in
    real space projection operators read in
    PAW grid and wavefunctions read in
 
   number of l-projection  operators is LMAX  =           4
   number of lm-projection operators is LMMAX =           8
 
  PAW_PBE Sn_d 06Sep2000                :
 energy of atom  1       EATOM=-1893.1092
 kinetic energy error for atom=    0.0008 (will be added to EATOM!!)
  PAW_PBE S 06Sep2000                   :
 energy of atom  2       EATOM= -276.8230
 kinetic energy error for atom=    0.0008 (will be added to EATOM!!)
 
 
 POSCAR: Sn4 S4
  positions in direct lattice
  No initial velocities read in
 exchange correlation table for  LEXCH =        8
   RHO(1)=    0.500       N(1)  =     2000
   RHO(2)=  100.500       N(2)  =     4000
 


--------------------------------------------------------------------------------------------------------


 ion  position               nearest neighbor table
   1  0.250  0.370  0.622-   8 2.63   6 2.65   6 2.65   2 3.60   2 3.60
   2  0.750  0.630  0.378-   7 2.63   5 2.65   5 2.65   1 3.60   1 3.60
   3  0.750  0.870  0.878-   6 2.63   8 2.65   8 2.65   4 3.60   4 3.60
   4  0.250  0.130  0.122-   5 2.63   7 2.65   7 2.65   3 3.60   3 3.60
   5  0.250  0.011  0.347-   4 2.63   2 2.65   2 2.65
   6  0.750  0.989  0.653-   3 2.63   1 2.65   1 2.65
   7  0.750  0.511  0.153-   2 2.63   4 2.65   4 2.65
   8  0.250  0.489  0.847-   1 2.63   3 2.65   3 2.65
 
  LATTYP: Found a simple orthorhombic cell.
 ALAT       =     3.9568552100
 B/A-ratio  =     1.1455588970
 C/A-ratio  =     2.8790587235
  
  Lattice vectors:
  
 A1 = (   3.9568552100,   0.0000000000,   0.0000000000)
 A2 = (  -0.0000000000,   4.5328106900,   0.0000000000)
 A3 = (   0.0000000000,   0.0000000000,  11.3920185100)


Analysis of symmetry for initial positions (statically):
=====================================================================
 Subroutine PRICEL returns:
 Original cell was already a primitive cell.
 

 Routine SETGRP: Setting up the symmetry group for a 
 simple orthorhombic supercell.


 Subroutine GETGRP returns: Found  8 space group operations
 (whereof  2 operations were pure point group operations)
 out of a pool of  8 trial point group operations.


The static configuration has the point symmetry S_2 .
 The point group associated with its full space group is D_2h.


Analysis of symmetry for dynamics (positions and initial velocities):
=====================================================================
 Subroutine PRICEL returns:
 Original cell was already a primitive cell.
 

 Routine SETGRP: Setting up the symmetry group for a 
 simple orthorhombic supercell.


 Subroutine GETGRP returns: Found  8 space group operations
 (whereof  2 operations were pure point group operations)
 out of a pool of  8 trial point group operations.


The dynamic configuration has the point symmetry S_2 .
 The point group associated with its full space group is D_2h.


Analysis of structural, dynamic, and magnetic symmetry:
=====================================================================
 Subroutine PRICEL returns:
 Original cell was already a primitive cell.
 

 Routine SETGRP: Setting up the symmetry group for a 
 simple orthorhombic supercell.


 Subroutine GETGRP returns: Found  8 space group operations
 (whereof  2 operations were pure point group operations)
 out of a pool of  8 trial point group operations.


The overall configuration has the point symmetry S_2 .
 The point group associated with its full space group is D_2h.


 Subroutine INISYM returns: Found  8 space group operations
 (whereof  2 operations are pure point group operations),
 and found     1 'primitive' translations


----------------------------------------------------------------------------------------

                                     Primitive cell                                     

  volume of cell :     204.3235

  direct lattice vectors                    reciprocal lattice vectors
     3.956855210  0.000000000  0.000000000     0.252725952  0.000000000  0.000000000
    -0.000000000  4.532810690  0.000000000     0.000000000  0.220613670  0.000000000
     0.000000000  0.000000000 11.392018510    -0.000000000 -0.000000000  0.087780756

  length of vectors
     3.956855210  4.532810690 11.392018510     0.252725952  0.220613670  0.087780756

  position of ions in fractional coordinates (direct lattice)
     0.250000000  0.369539840  0.621632750
     0.750000000  0.630460160  0.378367250
     0.750000000  0.869539840  0.878367250
     0.250000000  0.130460160  0.121632750
     0.250000000  0.010596800  0.347497460
     0.750000000  0.989403200  0.652502540
     0.750000000  0.510596800  0.152502540
     0.250000000  0.489403200  0.847497460

  ion indices of the primitive-cell ions
   primitive index   ion index
                 1           1
                 2           2
                 3           3
                 4           4
                 5           5
                 6           6
                 7           7
                 8           8

----------------------------------------------------------------------------------------

 
 
 KPOINTS: k-points for static calculation at speci

Read explicit list of k-points.

 Found      3 k-points:

 Following reciprocal coordinates:
            Coordinates               Weight
  0.000000  0.000000  0.000000      0.333333
  0.000000  0.500000  0.500000      0.333333
  0.285714  0.000000  0.000000      0.333333

 Following cartesian coordinates:
            Coordinates               Weight
  0.000000  0.000000  0.000000      0.333333
 -0.000000  0.110307  0.043890      0.333333
  0.072207  0.000000  0.000000      0.333333
 
 
 Subroutine IBZKPT_HF returns following result:
 ==============================================
 
 Found      4 k-points in 1st BZ
 the following      4 k-points will be used (e.g. in the exchange kernel)
 Following reciprocal coordinates:   # in IRBZ
  0.000000  0.000000  0.000000    0.33333333   1 t-inv F
  0.000000  0.500000  0.500000    0.33333333   2 t-inv F
  0.285714  0.000000  0.000000    0.16666667   3 t-inv F
 -0.285714  0.000000  0.000000    0.16666667   3 t-inv F


--------------------------------------------------------------------------------------------------------




 Dimension of arrays:
   k-points           NKPTS =      3   k-points in BZ     NKDIM =      4   number of bands    NBANDS=     60
   number of dos      NEDOS =    301   number of ions     NIONS =      8
   non local maximal  LDIM  =      6   non local SUM 2l+1 LMDIM =     18
   total plane-waves  NPLWV = 141120
   max r-space proj   IRMAX =      1   max aug-charges    IRDMAX=  31040
   dimension x,y,z NGX =    36 NGY =   40 NGZ =   98
   dimension x,y,z NGXF=    72 NGYF=   80 NGZF=  196
   support grid    NGXF=    72 NGYF=   80 NGZF=  196
   ions per type =               4   4
   NGX,Y,Z   is equivalent  to a cutoff of  15.13, 14.67, 14.30 a.u.
   NGXF,Y,Z  is equivalent  to a cutoff of  30.25, 29.34, 28.60 a.u.

 SYSTEM =  unknown system                          
 POSCAR =  Sn4 S4                                  

 Startparameter for this run:
   NWRITE =      2    write-flag & timer
   PREC   = accura    normal or accurate (medium, high low for compatibility)
   ISTART =      0    job   : 0-new  1-cont  2-samecut
   ICHARG =      2    charge: 1-file 2-atom 10-const
   ISPIN  =      2    spin polarized calculation?
   LNONCOLLINEAR =      F non collinear calculations
   LSORBIT =      F    spin-orbit coupling
   INIWAV =      1    electr: 0-lowe 1-rand  2-diag
   LASPH  =      T    aspherical Exc in radial PAW
 Electronic Relaxation 1
   ENCUT  =  680.0 eV  49.98 Ry    7.07 a.u.   8.41  9.64 24.22*2*pi/ulx,y,z
   ENINI  =  680.0     initial cutoff
   ENAUG  = 1360.0 eV  augmentation charge cutoff
   NELM   =    200;   NELMIN=  2; NELMDL= -5     # of ELM steps 
   EDIFF  = 0.1E-04   stopping-criterion for ELM
   LREAL  =      F    real-space projection
   NLSPLINE    = F    spline interpolate recip. space projectors
   LCOMPAT=      F    compatible to vasp.4.4
   GGA_COMPAT  = T    GGA compatible to vasp.4.4-vasp.4.6
   LMAXPAW     = -100 max onsite density
   LMAXMIX     =    4 max onsite mixed and CHGCAR
   VOSKOWN=      0    Vosko Wilk Nusair interpolation
   ROPT   =    0.00000   0.00000
 Ionic relaxation
   EDIFFG = 0.1E-03   stopping-criterion for IOM
   NSW    =      0    number of steps for IOM
   NBLOCK =      1;   KBLOCK =      1    inner block; outer block 
   IBRION =     -1    ionic relax: 0-MD 1-quasi-New 2-CG
   NFREE  =      0    steps in history (QN), initial steepest desc. (CG)
   ISIF   =      0    stress and relaxation
   IWAVPR =     10    prediction:  0-non 1-charg 2-wave 3-comb
   ISYM   =      3    0-nonsym 1-usesym 2-fastsym
   LCORR  =      T    Harris-Foulkes like correction to forces

   POTIM  = 0.5000    time-step for ionic-motion
   TEIN   =    0.0    initial temperature
   TEBEG  =    0.0;   TEEND  =   0.0 temperature during run
   SMASS  =  -3.00    Nose mass-parameter (am)
   estimated Nose-frequenzy (Omega)   =  0.10E-29 period in steps = 0.13E+47 mass=  -0.358E-27a.u.
   SCALEE = 1.0000    scale energy and forces
   NPACO  =    256;   APACO  = 10.0  distance and # of slots for P.C.
   PSTRESS=    0.0 pullay stress

  Mass of Ions in am
   POMASS = 118.71 32.07
  Ionic Valenz
   ZVAL   =  14.00  6.00
  Atomic Wigner-Seitz radii
   RWIGS  =  -1.00 -1.00
  virtual crystal weights 
   VCA    =   1.00  1.00
   NELECT =      80.0000    total number of electrons
   NUPDOWN=      -1.0000    fix difference up-down

 DOS related values:
   EMIN   =  10.00;   EMAX   =-10.00  energy-range for DOS
   EFERMI =   0.00;   METHOD = LEGACY      
   ISMEAR =     0;   SIGMA  =   0.01  broadening in eV -4-tet -1-fermi 0-gaus

 Electronic relaxation 2 (details)
   IALGO  =     38    algorithm
   LDIAG  =      T    sub-space diagonalisation (order eigenvalues)
   LSUBROT=      F    optimize rotation matrix (better conditioning)
   TURBO    =      0    0=normal 1=particle mesh
   IRESTART =      0    0=no restart 2=restart with 2 vectors
   NREBOOT  =      0    no. of reboots
   NMIN     =      0    reboot dimension
   EREF     =   0.00    reference energy to select bands
   IMIX   =      1    mixing-type and parameters
     AMIX     =   0.40;   BMIX     =  1.00
     AMIX_MAG =   1.60;   BMIX_MAG =  1.00
     AMIN     =   0.10
     WC   =   100.;   INIMIX=   1;  MIXPRE=   1;  MAXMIX= -45

 Intra band minimization:
   WEIMIN = 0.0000     energy-eigenvalue tresh-hold
   EBREAK =  0.42E-07  absolut break condition
   DEPER  =   0.30     relativ break condition  

   TIME   =   0.40     timestep for ELM

  volume/ion in A,a.u.               =      25.54       172.36
  Fermi-wavevector in a.u.,A,eV,Ry     =   1.197656  2.263241 19.515916  1.434379
  Thomas-Fermi vector in A             =   2.333565
 
 Write flags
   LWAVE        =      T    write WAVECAR
   LDOWNSAMPLE  =      F    k-point downsampling of WAVECAR
   LCHARG       =      T    write CHGCAR
   LVTOT        =      T    write LOCPOT, total local potential
   LVHAR        =      F    write LOCPOT, Hartree potential only
   LELF         =      F    write electronic localiz. function (ELF)
   LORBIT       =     11    0 simple, 1 ext, 2 COOP (PROOUT), +10 PAW based schemes


 Dipole corrections
   LMONO  =      F    monopole corrections only (constant potential shift)
   LDIPOL =      F    correct potential (dipole corrections)
   IDIPOL =      0    1-x, 2-y, 3-z, 4-all directions 
   EPSILON=  1.0000000 bulk dielectric constant

 Exchange correlation treatment:
   GGA     =    PE    GGA type
   LEXCH   =     8    internal setting for exchange type
   LIBXC   =     F    Libxc                    
   VOSKOWN =     0    Vosko Wilk Nusair interpolation
   EXXOEP  =     0    0=HF, 1=EXX-LHF (local Hartree Fock) 2=EXX OEP
   LHFCALC =     T    Hartree Fock is set to
   LSYMGRAD=     F    symmetrize gradient (conserves proper symmetry)
   PRECFOCK=fast      Normal, Fast or Accurate (Low or Medium for compatibility)
   LRHFCALC=     F    long range Hartree Fock
   LRSCOR  =     F    long range correlation only (use DFT for short range part)
   LTHOMAS =     F    Thomas Fermi screening in HF
   LMODELHF=     F    short range full HF, long range fraction AEXX
   FOCKCORR=     1    mode to apply convergence corrections
   LFOCKACE=     T    use Adeptively-Compressed-Exchange operator
   ENCUT4O =  -1.0   cutoff for four orbital integrals eV
   LMAXFOCK=     4    L truncation for augmentation on plane wave grid
   LMAXFOCKAE=  -1    L truncation for all-electron charge restoration on plane wave grid
   NMAXFOCKAE=   1    number of basis functions for all-electron charge restoration
   LFOCKAEDFT=     F  apply the AE augmentation even for DFT
   NKREDX  =     1    reduce k-point grid by
   NKREDY  =     1    reduce k-point grid by
   NKREDZ  =     1    reduce k-point grid by
   SHIFTRED=     F    shift reduced grid of Gamma
   HFKIDENT=     F    idential grid for each k-point
   ODDONLY =     F    use only odd q-grid points
   EVENONLY=     F    use only even q-grid points
   HFALPHA =   -1.0000 decay constant for conv. correction
   MCALPHA =    0.0000 extent of test-charge in conv. correction in multipole expansion
   AEXX    =    0.2500 exact exchange contribution
   HFSCREEN=    0.2000 screening length (either q_TF or 0.3 A-1)
   HFSCREENC=   0.2000 screening length for correlation (either q_TF or 0.3 A-1)
   HFRCUT  =    0.0000 spherical cutoff for potential kernel
   ALDAX   =    0.7500 LDA exchange part
   AGGAX   =    0.7500 GGA exchange part
   ALDAC   =    1.0000 LDA correlation
   AGGAC   =    1.0000 GGA correlation
   ENCUTFOCK=  -1.0 apply spherical cutoff to Coloumb kernel
   NBANDSGWLOW=     1    first orbital included in HF term
   NBLOCK_FOCK=    64    blocking factor in FOCK_ACC

 Linear response parameters
   LEPSILON=     F    determine dielectric tensor
   LRPA    =     F    only Hartree local field effects (RPA)
   LNABLA  =     F    use nabla operator in PAW spheres
   LVEL    =     F    velocity operator in full k-point grid
   CSHIFT  =0.1000    complex shift for real part using Kramers Kronig
   OMEGAMAX=  -1.0    maximum frequency
   DEG_THRESHOLD= 0.2000000E-02 threshold for treating states as degnerate
   RTIME   =   -0.100 relaxation time in fs
  (WPLASMAI=    0.000 imaginary part of plasma frequency in eV, 0.658/RTIME)
   DFIELD  = 0.0000000 0.0000000 0.0000000 field for delta impulse in time
 
  Optional k-point grid parameters
   LKPOINTS_OPT  =     F    use optional k-point grid
   KPOINTS_OPT_MODE=     1    mode for optional k-point grid
 
 Orbital magnetization related:
   ORBITALMAG=     F  switch on orbital magnetization
   LCHIMAG   =     F  perturbation theory with respect to B field
   DQ        =  0.001000  dq finite difference perturbation B field
   LLRAUG    =     F  two centre corrections for induced B field
   LBONE     =     F  B-component reconstruction in AE one-centre
   LVGVCALC  =     T  calculate vGv susceptibility
   LVGVAPPL  =     F  apply vGv susceptibility instead of pGv for G=0

 Random number generation:
   RANDOM_GENERATOR = DEFAULT
   PCG_SEED         = not used


--------------------------------------------------------------------------------------------------------


 Static calculation
 charge density and potential will be updated during run
 spin polarized calculation
 Variant of blocked Davidson
 Davidson routine will perform the subspace rotation
 perform sub-space diagonalisation
    after iterative eigenvector-optimisation
 Kerker-like  mixing scheme
 using additional bands           20
 reciprocal scheme for non local part
 use partial core corrections
 calculate Harris-corrections to forces 
   (improved forces if not selfconsistent)
 use gradient corrections 
 use of overlap-Matrix (Vanderbilt PP)
 Gauss-broadening in eV      SIGMA  =   0.01


--------------------------------------------------------------------------------------------------------


  energy-cutoff  :      680.00
  volume of cell :      204.32
      direct lattice vectors                 reciprocal lattice vectors
     3.956855210  0.000000000  0.000000000     0.252725952  0.000000000  0.000000000
    -0.000000000  4.532810690  0.000000000     0.000000000  0.220613670  0.000000000
     0.000000000  0.000000000 11.392018510    -0.000000000 -0.000000000  0.087780756

  length of vectors
     3.956855210  4.532810690 11.392018510     0.252725952  0.220613670  0.087780756


 
 k-points in units of 2pi/SCALE and weight: k-points for static calculation at speci
   0.00000000  0.00000000  0.00000000       0.333
  -0.00000000  0.11030683  0.04389038       0.333
   0.07220742  0.00000000  0.00000000       0.333
 
 k-points in reciprocal lattice and weights: k-points for static calculation at speci
   0.00000000  0.00000000  0.00000000       0.333
   0.00000000  0.50000000  0.50000000       0.333
   0.28571429  0.00000000  0.00000000       0.333
 
 position of ions in fractional coordinates (direct lattice) 
   0.25000000  0.36953984  0.62163275
   0.75000000  0.63046016  0.37836725
   0.75000000  0.86953984  0.87836725
   0.25000000  0.13046016  0.12163275
   0.25000000  0.01059680  0.34749746
   0.75000000  0.98940320  0.65250254
   0.75000000  0.51059680  0.15250254
   0.25000000  0.48940320  0.84749746
 
 position of ions in cartesian coordinates  (Angst):
   0.98921380  1.67505414  7.08165179
   2.96764141  2.85775655  4.31036672
   2.96764141  3.94145948 10.00637597
   0.98921380  0.59135121  1.38564254
   0.98921380  0.04803329  3.95869750
   2.96764141  4.48477740  7.43332101
   2.96764141  2.31443863  1.73731176
   0.98921380  2.21837206  9.65470675
 


--------------------------------------------------------------------------------------------------------


 k-point   1 :   0.0000 0.0000 0.0000  plane waves:    8239
 k-point   2 :   0.0000 0.5000 0.5000  plane waves:    8236
 k-point   3 :   0.2857 0.0000 0.0000  plane waves:    8233

 maximum and minimum number of plane-waves per node :       841      801

 maximum number of plane-waves:      8239
 maximum index in each direction: 
   IXMAX=    8   IYMAX=    9   IZMAX=   24
   IXMIN=   -8   IYMIN=  -10   IZMIN=  -24


 parallel 3D FFT for wavefunctions:
    minimum data exchange during FFTs selected (reduces bandwidth)
 parallel 3D FFT for charge:
    minimum data exchange during FFTs selected (reduces bandwidth)


 FFT grid for exact exchange (Hartree Fock) 
  NGX = 20; NGY = 24; NGZ = 56

 
 Radii for the augmentation spheres in the non-local exchange
 for species   1 augmentation radius   1.471 (default was   1.089)
       energy cutoff for augmentation   2720.0
 for species   2 augmentation radius   1.309 (default was   0.970)
       energy cutoff for augmentation   2720.0

 real space projection operators:
  total allocation   :       1721.25 KBytes
  max/ min on nodes  :        184.75        163.03

 Maximum index for augmentation-charges in exchange          194
  SETUP_FOCK is finished

 total amount of memory used by VASP MPI-rank0    35499. kBytes
=======================================================================

   base      :      30000. kBytes
   nonl-proj :        845. kBytes
   fftplans  :       1141. kBytes
   grid      :       2524. kBytes
   one-center:         31. kBytes
   HF        :         64. kBytes
   nonlr-proj:        474. kBytes
   wavefun   :        420. kBytes
 
     INWAV:  cpu time      0.0000: real time      0.0001
 initial charge density was supplied:
 charge density of overlapping atoms calculated
 number of electron      80.0000000 magnetization       4.8000000
 keeping initial charge density in first step


--------------------------------------------------------------------------------------------------------


 Maximum index for augmentation-charges          196 (set IRDMAX)


--------------------------------------------------------------------------------------------------------


 First call to EWALD:  gamma=   0.301
 Maximum number of real-space cells 4x 3x 2
 Maximum number of reciprocal cells 2x 2x 5

    FEWALD:  cpu time      0.0025: real time      0.0027


--------------------------------------- Ionic step        1  -------------------------------------------




--------------------------------------- Iteration      1(   1)  ---------------------------------------


    POTLOK:  cpu time      0.0473: real time      0.0789
    SETDIJ:  cpu time      0.4186: real time      0.4199
     EDDAV:  cpu time      0.2499: real time      0.3255
       DOS:  cpu time      0.0053: real time      0.0058
    --------------------------------------------
      LOOP:  cpu time      0.7213: real time      0.8303

 eigenvalue-minimisations  :   840
 total energy-change (2. order) :-0.3850762E+04  (-0.4391614E+04)
 number of electron      80.0000000 magnetization       4.8000000
 augmentation part       80.0000000 magnetization       4.8000000

 Free energy of the ion-electron system (eV)
  ---------------------------------------------------
  alpha Z        PSCENC =       164.67690988
  Ewald energy   TEWEN  =     -6009.93810534
  -Hartree energ DENC   =     -2402.51146919
  -exchange      EXHF   =         0.00000000
  -V(xc)+E(xc)   XCENC  =       275.89987348
  PAW double counting   =      7145.25035233   -11885.61482844
  entropy T*S    EENTRO =        -0.00042729
  eigenvalues    EBANDS =       191.92704929
  atomic energy  EATOM  =      8669.54861131
  Solvation  Ediel_sol  =         0.00000000
  ---------------------------------------------------
  free energy    TOTEN  =     -3850.76203397 eV

  energy without entropy =    -3850.76160668  energy(sigma->0) =    -3850.76182032
  exchange ACFDT corr.  =         0.00000000  see jH, gK, PRB 81, 115126


--------------------------------------------------------------------------------------------------------




--------------------------------------- Iteration      1(   2)  ---------------------------------------


     EDDAV:  cpu time      0.1638: real time      0.1682
       DOS:  cpu time      0.0002: real time      0.0002
    --------------------------------------------
      LOOP:  cpu time      0.1638: real time      0.1681

 eigenvalue-minimisations  :   720
 total energy-change (2. order) :-0.8357512E+03  (-0.7955820E+03)
 number of electron      80.0000000 magnetization       4.8000000
 augmentation part       80.0000000 magnetization       4.8000000

 Free energy of the ion-electron system (eV)
  ---------------------------------------------------
  alpha Z        PSCENC =       164.67690988
  Ewald energy   TEWEN  =     -6009.93810534
  -Hartree energ DENC   =     -2402.51146919
  -exchange      EXHF   =         0.00000000
  -V(xc)+E(xc)   XCENC  =       275.89987348
  PAW double counting   =      7145.25035233   -11885.61482844
  entropy T*S    EENTRO =        -0.00000000
  eigenvalues    EBANDS =      -643.82457827
  atomic energy  EATOM  =      8669.54861131
  Solvation  Ediel_sol  =         0.00000000
  ---------------------------------------------------
  free energy    TOTEN  =     -4686.51323423 eV

  energy without entropy =    -4686.51323423  energy(sigma->0) =    -4686.51323423
  exchange ACFDT corr.  =         0.00000000  see jH, gK, PRB 81, 115126


--------------------------------------------------------------------------------------------------------




--------------------------------------- Iteration      1(   3)  ---------------------------------------


     EDDAV:  cpu time      0.1643: real time      0.1787
       DOS:  cpu time      0.0002: real time      0.0002
    --------------------------------------------
      LOOP:  cpu time      0.1644: real time      0.1789

 eigenvalue-minimisations  :   804
 total energy-change (2. order) :-0.1476496E+03  (-0.1427369E+03)
 number of electron      80.0000000 magnetization       4.8000000
 augmentation part       80.0000000 magnetization       4.8000000

 Free energy of the ion-electron system (eV)
  ---------------------------------------------------
  alpha Z        PSCENC =       164.67690988
  Ewald energy   TEWEN  =     -6009.93810534
  -Hartree energ DENC   =     -2402.51146919
  -exchange      EXHF   =         0.00000000
  -V(xc)+E(xc)   XCENC  =       275.89987348
  PAW double counting   =      7145.25035233   -11885.61482844
  entropy T*S    EENTRO =        -0.00000000
  eigenvalues    EBANDS =      -791.47413644
  atomic energy  EATOM  =      8669.54861131
  Solvation  Ediel_sol  =         0.00000000
  ---------------------------------------------------
  free energy    TOTEN  =     -4834.16279241 eV

  energy without entropy =    -4834.16279241  energy(sigma->0) =    -4834.16279241
  exchange ACFDT corr.  =         0.00000000  see jH, gK, PRB 81, 115126


--------------------------------------------------------------------------------------------------------




--------------------------------------- Iteration      1(   4)  ---------------------------------------


     EDDAV:  cpu time      0.1692: real time      0.1848
       DOS:  cpu time      0.0002: real time      0.0002
    --------------------------------------------
      LOOP:  cpu time      0.1694: real time      0.1850

 eigenvalue-minimisations  :   852
 total energy-change (2. order) :-0.8958130E+01  (-0.8902757E+01)
 number of electron      80.0000000 magnetization       4.8000000
 augmentation part       80.0000000 magnetization       4.8000000

 Free energy of the ion-electron system (eV)
  ---------------------------------------------------
  alpha Z        PSCENC =       164.67690988
  Ewald energy   TEWEN  =     -6009.93810534
  -Hartree energ DENC   =     -2402.51146919
  -exchange      EXHF   =         0.00000000
  -V(xc)+E(xc)   XCENC  =       275.89987348
  PAW double counting   =      7145.25035233   -11885.61482844
  entropy T*S    EENTRO =        -0.00000000
  eigenvalues    EBANDS =      -800.43226618
  atomic energy  EATOM  =      8669.54861131
  Solvation  Ediel_sol  =         0.00000000
  ---------------------------------------------------
  free energy    TOTEN  =     -4843.12092215 eV

  energy without entropy =    -4843.12092215  energy(sigma->0) =    -4843.12092215
  exchange ACFDT corr.  =         0.00000000  see jH, gK, PRB 81, 115126


--------------------------------------------------------------------------------------------------------




--------------------------------------- Iteration      1(   5)  ---------------------------------------


    POTLOK:  cpu time      0.0525: real time      0.0704
    SETDIJ:  cpu time      0.9420: real time      0.9443
     EDDAV:  cpu time      1.4323: real time      1.4902
       DOS:  cpu time      0.0004: real time      0.0004
    CHARGE:  cpu time      0.0159: real time      0.0179
    MIXING:  cpu time      0.0005: real time      0.0005
    --------------------------------------------
      LOOP:  cpu time      2.4435: real time      2.5237

 eigenvalue-minimisations  :   960
 total energy-change (2. order) : 0.4804166E+04  (-0.2968058E+01)
 number of electron      79.9999995 magnetization      -2.8800000
 augmentation part       25.9953445 magnetization      -2.8721293

 Free energy of the ion-electron system (eV)
  ---------------------------------------------------
  alpha Z        PSCENC =       164.67690988
  Ewald energy   TEWEN  =     -6009.93810534
  -Hartree energ DENC   =     -2402.51146919
  -exchange      EXHF   =       183.19466978
  -V(xc)+E(xc)   XCENC  =       210.11547731
  PAW double counting   =      7208.61117106    -7314.06520611
  entropy T*S    EENTRO =        -0.00000000
  eigenvalues    EBANDS =      -748.58654874
  atomic energy  EATOM  =      8669.54861131
  Solvation  Ediel_sol  =         0.00000000
  ---------------------------------------------------
  free energy    TOTEN  =       -38.95449003 eV

  energy without entropy =      -38.95449003  energy(sigma->0) =      -38.95449003
  exchange ACFDT corr.  =         0.00000000  see jH, gK, PRB 81, 115126


--------------------------------------------------------------------------------------------------------




--------------------------------------- Iteration      1(   6)  ---------------------------------------


    POTLOK:  cpu time      0.0545: real time      0.0681
    SETDIJ:  cpu time      0.9385: real time      0.9409
     EDDAV:  cpu time      1.3650: real time      1.3686
       DOS:  cpu time      0.0002: real time      0.0002
    CHARGE:  cpu time      0.0120: real time      0.0121
    MIXING:  cpu time      0.0002: real time      0.0002
    --------------------------------------------
      LOOP:  cpu time      2.3705: real time      2.3900

 eigenvalue-minimisations  :   864
 total energy-change (2. order) : 0.3148439E+01  (-0.6387530E+00)
 number of electron      79.9999992 magnetization       1.7280000
 augmentation part       26.1696351 magnetization       1.7011428

 Free energy of the ion-electron system (eV)
  ---------------------------------------------------
  alpha Z        PSCENC =       164.67690988
  Ewald energy   TEWEN  =     -6009.93810534
  -Hartree energ DENC   =     -2407.41233205
  -exchange      EXHF   =       180.84900907
  -V(xc)+E(xc)   XCENC  =       211.20833385
  PAW double counting   =      7951.58930014    -8053.62319533
  entropy T*S    EENTRO =        -0.00000000
  eigenvalues    EBANDS =      -742.70458289
  atomic energy  EATOM  =      8669.54861131
  Solvation  Ediel_sol  =         0.00000000
  ---------------------------------------------------
  free energy    TOTEN  =       -35.80605136 eV

  energy without entropy =      -35.80605136  energy(sigma->0) =      -35.80605136
  exchange ACFDT corr.  =         0.00000000  see jH, gK, PRB 81, 115126


--------------------------------------------------------------------------------------------------------




--------------------------------------- Iteration      1(   7)  ---------------------------------------


    POTLOK:  cpu time      0.0485: real time      0.0654
    SETDIJ:  cpu time      0.9395: real time      0.9419
     EDDAV:  cpu time      1.3624: real time      1.3658
       DOS:  cpu time      0.0004: real time      0.0004
    CHARGE:  cpu time      0.0122: real time      0.0123
    MIXING:  cpu time      0.0002: real time      0.0002
    --------------------------------------------
      LOOP:  cpu time      2.3633: real time      2.3861

 eigenvalue-minimisations  :   852
 total energy-change (2. order) :-0.3974908E+00  (-0.3077415E+00)
 number of electron      79.9999990 magnetization      -1.0368000
 augmentation part       26.2327671 magnetization      -1.0257086

 Free energy of the ion-electron system (eV)
  ---------------------------------------------------
  alpha Z        PSCENC =       164.67690988
  Ewald energy   TEWEN  =     -6009.93810534
  -Hartree energ DENC   =     -2406.37672800
  -exchange      EXHF   =       178.32976155
  -V(xc)+E(xc)   XCENC  =       211.48832592
  PAW double counting   =      8749.40392676    -8850.99637906
  entropy T*S    EENTRO =        -0.00000000
  eigenvalues    EBANDS =      -742.33986513
  atomic energy  EATOM  =      8669.54861131
  Solvation  Ediel_sol  =         0.00000000
  ---------------------------------------------------
  free energy    TOTEN  =       -36.20354211 eV

  energy without entropy =      -36.20354211  energy(sigma->0) =      -36.20354211
  exchange ACFDT corr.  =         0.00000000  see jH, gK, PRB 81, 115126


--------------------------------------------------------------------------------------------------------




--------------------------------------- Iteration      1(   8)  ---------------------------------------


    POTLOK:  cpu time      0.0503: real time      0.0658
    SETDIJ:  cpu time      0.9367: real time      0.9391
     EDDAV:  cpu time      1.3753: real time      1.3788
       DOS:  cpu time      0.0003: real time      0.0004
    CHARGE:  cpu time      0.0134: real time      0.0135
    MIXING:  cpu time      0.0003: real time      0.0003
    --------------------------------------------
      LOOP:  cpu time      2.3763: real time      2.3978

 eigenvalue-minimisations  :   888
 total energy-change (2. order) :-0.8160446E-01  (-0.2440591E-01)
 number of electron      79.9999989 magnetization       0.6220800
 augmentation part       26.2030349 magnetization       0.6171165

 Free energy of the ion-electron system (eV)
  ---------------------------------------------------
  alpha Z        PSCENC =       164.67690988
  Ewald energy   TEWEN  =     -6009.93810534
  -Hartree energ DENC   =     -2405.01054995
  -exchange      EXHF   =       177.03910248
  -V(xc)+E(xc)   XCENC  =       211.44738721
  PAW double counting   =      9400.03136999    -9503.01986228
  entropy T*S    EENTRO =        -0.00000000
  eigenvalues    EBANDS =      -741.06000988
  atomic energy  EATOM  =      8669.54861131
  Solvation  Ediel_sol  =         0.00000000
  ---------------------------------------------------
  free energy    TOTEN  =       -36.28514657 eV

  energy without entropy =      -36.28514657  energy(sigma->0) =      -36.28514657
  exchange ACFDT corr.  =         0.00000000  see jH, gK, PRB 81, 115126


--------------------------------------------------------------------------------------------------------




--------------------------------------- Iteration      1(   9)  ---------------------------------------


    POTLOK:  cpu time      0.0505: real time      0.0658
    SETDIJ:  cpu time      0.9376: real time      0.9400
     EDDAV:  cpu time      1.3761: real time      1.3796
       DOS:  cpu time      0.0002: real time      0.0002
    CHARGE:  cpu time      0.0121: real time      0.0121
    MIXING:  cpu time      0.0003: real time      0.0002
    --------------------------------------------
      LOOP:  cpu time      2.3767: real time      2.3979

 eigenvalue-minimisations  :   960
 total energy-change (2. order) : 0.1613060E-01  (-0.6051704E-02)
 number of electron      79.9999988 magnetization      -0.3732480
 augmentation part       26.1811328 magnetization      -0.3708400

 Free energy of the ion-electron system (eV)
  ---------------------------------------------------
  alpha Z        PSCENC =       164.67690988
  Ewald energy   TEWEN  =     -6009.93810534
  -Hartree energ DENC   =     -2404.38135797
  -exchange      EXHF   =       176.95907100
  -V(xc)+E(xc)   XCENC  =       211.41827030
  PAW double counting   =      9809.18304640    -9913.23667877
  entropy T*S    EENTRO =        -0.00000000
  eigenvalues    EBANDS =      -740.49878279
  atomic energy  EATOM  =      8669.54861131
  Solvation  Ediel_sol  =         0.00000000
  ---------------------------------------------------
  free energy    TOTEN  =       -36.26901597 eV

  energy without entropy =      -36.26901597  energy(sigma->0) =      -36.26901597
  exchange ACFDT corr.  =         0.00000000  see jH, gK, PRB 81, 115126


--------------------------------------------------------------------------------------------------------




--------------------------------------- Iteration      1(  10)  ---------------------------------------


    POTLOK:  cpu time      0.0619: real time      0.0623
    SETDIJ:  cpu time      0.9361: real time      0.9385
     EDDAV:  cpu time      1.4180: real time      1.4215
       DOS:  cpu time      0.0002: real time      0.0002
    CHARGE:  cpu time      0.0154: real time      0.0154
    MIXING:  cpu time      0.0003: real time      0.0003
    --------------------------------------------
      LOOP:  cpu time      2.4320: real time      2.4382

 eigenvalue-minimisations  :   900
 total energy-change (2. order) :-0.6034448E-02  (-0.3108270E-02)
 number of electron      79.9999988 magnetization       0.2239488
 augmentation part       26.1722126 magnetization       0.2215833

 Free energy of the ion-electron system (eV)
  ---------------------------------------------------
  alpha Z        PSCENC =       164.67690988
  Ewald energy   TEWEN  =     -6009.93810534
  -Hartree energ DENC   =     -2404.03293742
  -exchange      EXHF   =       177.10798384
  -V(xc)+E(xc)   XCENC  =       211.42843814
  PAW double counting   =     10025.49752787   -10130.00735387
  entropy T*S    EENTRO =        -0.00000000
  eigenvalues    EBANDS =      -740.55612483
  atomic energy  EATOM  =      8669.54861131
  Solvation  Ediel_sol  =         0.00000000
  ---------------------------------------------------
  free energy    TOTEN  =       -36.27505042 eV

  energy without entropy =      -36.27505042  energy(sigma->0) =      -36.27505042
  exchange ACFDT corr.  =         0.00000000  see jH, gK, PRB 81, 115126


--------------------------------------------------------------------------------------------------------




--------------------------------------- Iteration      1(  11)  ---------------------------------------


    POTLOK:  cpu time      0.0601: real time      0.0763
    SETDIJ:  cpu time      0.9405: real time      0.9428
     EDDAV:  cpu time      1.6112: real time      1.6153
       DOS:  cpu time      0.0004: real time      0.0004
    CHARGE:  cpu time      0.0158: real time      0.0159
    MIXING:  cpu time      0.0004: real time      0.0004
    --------------------------------------------
      LOOP:  cpu time      2.6283: real time      2.6511

 eigenvalue-minimisations  :   888
 total energy-change (2. order) :-0.2359746E-02  (-0.5535352E-03)
 number of electron      79.9999987 magnetization      -0.1343693
 augmentation part       26.1713763 magnetization      -0.1335701

 Free energy of the ion-electron system (eV)
  ---------------------------------------------------
  alpha Z        PSCENC =       164.67690988
  Ewald energy   TEWEN  =     -6009.93810534
  -Hartree energ DENC   =     -2403.88232783
  -exchange      EXHF   =       177.20281369
  -V(xc)+E(xc)   XCENC  =       211.45262668
  PAW double counting   =     10127.44540488   -10232.12224292
  entropy T*S    EENTRO =        -0.00000000
  eigenvalues    EBANDS =      -740.66110051
  atomic energy  EATOM  =      8669.54861131
  Solvation  Ediel_sol  =         0.00000000
  ---------------------------------------------------
  free energy    TOTEN  =       -36.27741016 eV

  energy without entropy =      -36.27741016  energy(sigma->0) =      -36.27741016
  exchange ACFDT corr.  =         0.00000000  see jH, gK, PRB 81, 115126


--------------------------------------------------------------------------------------------------------




--------------------------------------- Iteration      1(  12)  ---------------------------------------


    POTLOK:  cpu time      0.0567: real time      0.0718
    SETDIJ:  cpu time      0.9554: real time      0.9578
     EDDAV:  cpu time      1.5499: real time      1.5537
       DOS:  cpu time      0.0003: real time      0.0003
    CHARGE:  cpu time      0.0142: real time      0.0143
    MIXING:  cpu time      0.0003: real time      0.0003
    --------------------------------------------
      LOOP:  cpu time      2.5769: real time      2.5982

 eigenvalue-minimisations  :   876
 total energy-change (2. order) :-0.6561179E-03  (-0.1388961E-03)
 number of electron      79.9999987 magnetization       0.0806216
 augmentation part       26.1711647 magnetization       0.0800603

 Free energy of the ion-electron system (eV)
  ---------------------------------------------------
  alpha Z        PSCENC =       164.67690988
  Ewald energy   TEWEN  =     -6009.93810534
  -Hartree energ DENC   =     -2403.83958361
  -exchange      EXHF   =       177.21158133
  -V(xc)+E(xc)   XCENC  =       211.47064261
  PAW double counting   =     10180.55946978   -10285.34001819
  entropy T*S    EENTRO =        -0.00000000
  eigenvalues    EBANDS =      -740.62757405
  atomic energy  EATOM  =      8669.54861131
  Solvation  Ediel_sol  =         0.00000000
  ---------------------------------------------------
  free energy    TOTEN  =       -36.27806628 eV

  energy without entropy =      -36.27806628  energy(sigma->0) =      -36.27806628
  exchange ACFDT corr.  =         0.00000000  see jH, gK, PRB 81, 115126


--------------------------------------------------------------------------------------------------------




--------------------------------------- Iteration      1(  13)  ---------------------------------------


    POTLOK:  cpu time      0.0601: real time      0.0725
    SETDIJ:  cpu time      0.9402: real time      0.9424
     EDDAV:  cpu time      1.3667: real time      1.3703
       DOS:  cpu time      0.0002: real time      0.0002
    CHARGE:  cpu time      0.0123: real time      0.0123
    MIXING:  cpu time      0.0003: real time      0.0003
    --------------------------------------------
      LOOP:  cpu time      2.3797: real time      2.3980

 eigenvalue-minimisations  :   864
 total energy-change (2. order) :-0.4498319E-03  (-0.6312410E-04)
 number of electron      79.9999987 magnetization      -0.0483729
 augmentation part       26.1706426 magnetization      -0.0480049

 Free energy of the ion-electron system (eV)
  ---------------------------------------------------
  alpha Z        PSCENC =       164.67690988
  Ewald energy   TEWEN  =     -6009.93810534
  -Hartree energ DENC   =     -2403.83795442
  -exchange      EXHF   =       177.19708039
  -V(xc)+E(xc)   XCENC  =       211.48000102
  PAW double counting   =     10210.39468823   -10315.26556054
  entropy T*S    EENTRO =        -0.00000000
  eigenvalues    EBANDS =      -740.53418664
  atomic energy  EATOM  =      8669.54861131
  Solvation  Ediel_sol  =         0.00000000
  ---------------------------------------------------
  free energy    TOTEN  =       -36.27851611 eV

  energy without entropy =      -36.27851611  energy(sigma->0) =      -36.27851611
  exchange ACFDT corr.  =         0.00000000  see jH, gK, PRB 81, 115126


--------------------------------------------------------------------------------------------------------




--------------------------------------- Iteration      1(  14)  ---------------------------------------


    POTLOK:  cpu time      0.0486: real time      0.0688
    SETDIJ:  cpu time      0.9354: real time      0.9377
     EDDAV:  cpu time      1.3570: real time      1.3604
       DOS:  cpu time      0.0003: real time      0.0003
    CHARGE:  cpu time      0.0120: real time      0.0121
    MIXING:  cpu time      0.0003: real time      0.0003
    --------------------------------------------
      LOOP:  cpu time      2.3535: real time      2.3794

 eigenvalue-minimisations  :   828
 total energy-change (2. order) :-0.2154829E-03  (-0.1858893E-04)
 number of electron      79.9999987 magnetization       0.0290238
 augmentation part       26.1700365 magnetization       0.0288654

 Free energy of the ion-electron system (eV)
  ---------------------------------------------------
  alpha Z        PSCENC =       164.67690988
  Ewald energy   TEWEN  =     -6009.93810534
  -Hartree energ DENC   =     -2403.84678627
  -exchange      EXHF   =       177.18662933
  -V(xc)+E(xc)   XCENC  =       211.48426825
  PAW double counting   =     10227.38571895   -10332.32892737
  entropy T*S    EENTRO =        -0.00000000
  eigenvalues    EBANDS =      -740.44705034
  atomic energy  EATOM  =      8669.54861131
  Solvation  Ediel_sol  =         0.00000000
  ---------------------------------------------------
  free energy    TOTEN  =       -36.27873159 eV

  energy without entropy =      -36.27873159  energy(sigma->0) =      -36.27873159
  exchange ACFDT corr.  =         0.00000000  see jH, gK, PRB 81, 115126


--------------------------------------------------------------------------------------------------------




--------------------------------------- Iteration      1(  15)  ---------------------------------------


    POTLOK:  cpu time      0.0484: real time      0.0605
    SETDIJ:  cpu time      0.9387: real time      0.9411
     EDDAV:  cpu time      1.3563: real time      1.3598
       DOS:  cpu time      0.0002: real time      0.0002
    CHARGE:  cpu time      0.0121: real time      0.0122
    MIXING:  cpu time      0.0002: real time      0.0002
    --------------------------------------------
      LOOP:  cpu time      2.3560: real time      2.3739

 eigenvalue-minimisations  :   792
 total energy-change (2. order) :-0.9326392E-04  (-0.6190645E-05)
 number of electron      79.9999987 magnetization      -0.0174143
 augmentation part       26.1695227 magnetization      -0.0173394

 Free energy of the ion-electron system (eV)
  ---------------------------------------------------
  alpha Z        PSCENC =       164.67690988
  Ewald energy   TEWEN  =     -6009.93810534
  -Hartree energ DENC   =     -2403.85615167
  -exchange      EXHF   =       177.18452646
  -V(xc)+E(xc)   XCENC  =       211.48666553
  PAW double counting   =     10236.58285566   -10341.57373167
  entropy T*S    EENTRO =        -0.00000000
  eigenvalues    EBANDS =      -740.39040503
  atomic energy  EATOM  =      8669.54861131
  Solvation  Ediel_sol  =         0.00000000
  ---------------------------------------------------
  free energy    TOTEN  =       -36.27882486 eV

  energy without entropy =      -36.27882486  energy(sigma->0) =      -36.27882486
  exchange ACFDT corr.  =         0.00000000  see jH, gK, PRB 81, 115126


--------------------------------------------------------------------------------------------------------




--------------------------------------- Iteration      1(  16)  ---------------------------------------


    POTLOK:  cpu time      0.0487: real time      0.0650
    SETDIJ:  cpu time      0.9370: real time      0.9393
     EDDAV:  cpu time      1.3440: real time      1.3474
       DOS:  cpu time      0.0002: real time      0.0002
    CHARGE:  cpu time      0.0125: real time      0.0125
    MIXING:  cpu time      0.0002: real time      0.0002
    --------------------------------------------
      LOOP:  cpu time      2.3426: real time      2.3646

 eigenvalue-minimisations  :   744
 total energy-change (2. order) :-0.4384469E-04  (-0.2581697E-05)
 number of electron      79.9999987 magnetization       0.0104486
 augmentation part       26.1692679 magnetization       0.0104303

 Free energy of the ion-electron system (eV)
  ---------------------------------------------------
  alpha Z        PSCENC =       164.67690988
  Ewald energy   TEWEN  =     -6009.93810534
  -Hartree energ DENC   =     -2403.86381281
  -exchange      EXHF   =       177.18531935
  -V(xc)+E(xc)   XCENC  =       211.48833338
  PAW double counting   =     10241.12278721   -10346.14172273
  entropy T*S    EENTRO =        -0.00000000
  eigenvalues    EBANDS =      -740.35718895
  atomic energy  EATOM  =      8669.54861131
  Solvation  Ediel_sol  =         0.00000000
  ---------------------------------------------------
  free energy    TOTEN  =       -36.27886870 eV

  energy without entropy =      -36.27886870  energy(sigma->0) =      -36.27886870
  exchange ACFDT corr.  =         0.00000000  see jH, gK, PRB 81, 115126


--------------------------------------------------------------------------------------------------------




--------------------------------------- Iteration      1(  17)  ---------------------------------------


    POTLOK:  cpu time      0.0485: real time      0.0678
    SETDIJ:  cpu time      0.9388: real time      0.9412
     EDDAV:  cpu time      1.3368: real time      1.3402
       DOS:  cpu time      0.0002: real time      0.0002
    CHARGE:  cpu time      0.0135: real time      0.0135
    MIXING:  cpu time      0.0003: real time      0.0002
    --------------------------------------------
      LOOP:  cpu time      2.3380: real time      2.3631

 eigenvalue-minimisations  :   684
 total energy-change (2. order) :-0.2054343E-04  (-0.1115259E-05)
 number of electron      79.9999987 magnetization      -0.0062691
 augmentation part       26.1691340 magnetization      -0.0062812

 Free energy of the ion-electron system (eV)
  ---------------------------------------------------
  alpha Z        PSCENC =       164.67690988
  Ewald energy   TEWEN  =     -6009.93810534
  -Hartree energ DENC   =     -2403.87191725
  -exchange      EXHF   =       177.18618007
  -V(xc)+E(xc)   XCENC  =       211.48959325
  PAW double counting   =     10243.21664048   -10348.25205295
  entropy T*S    EENTRO =        -0.00000000
  eigenvalues    EBANDS =      -740.33474869
  atomic energy  EATOM  =      8669.54861131
  Solvation  Ediel_sol  =         0.00000000
  ---------------------------------------------------
  free energy    TOTEN  =       -36.27888925 eV

  energy without entropy =      -36.27888925  energy(sigma->0) =      -36.27888925
  exchange ACFDT corr.  =         0.00000000  see jH, gK, PRB 81, 115126


--------------------------------------------------------------------------------------------------------




--------------------------------------- Iteration      1(  18)  ---------------------------------------


    POTLOK:  cpu time      0.0490: real time      0.0659
    SETDIJ:  cpu time      0.9365: real time      0.9389
     EDDAV:  cpu time      1.3289: real time      1.3324
       DOS:  cpu time      0.0002: real time      0.0002
    --------------------------------------------
      LOOP:  cpu time      2.3147: real time      2.3374

 eigenvalue-minimisations  :   612
 total energy-change (2. order) :-0.9593903E-05  (-0.4833957E-06)
 number of electron      79.9999987 magnetization      -0.0062691
 augmentation part       26.1691340 magnetization      -0.0062812

 Free energy of the ion-electron system (eV)
  ---------------------------------------------------
  alpha Z        PSCENC =       164.67690988
  Ewald energy   TEWEN  =     -6009.93810534
  -Hartree energ DENC   =     -2403.87931308
  -exchange      EXHF   =       177.18639586
  -V(xc)+E(xc)   XCENC  =       211.49046991
  PAW double counting   =     10244.15378403   -10349.19935351
  entropy T*S    EENTRO =        -0.00000000
  eigenvalues    EBANDS =      -740.31829791
  atomic energy  EATOM  =      8669.54861131
  Solvation  Ediel_sol  =         0.00000000
  ---------------------------------------------------
  free energy    TOTEN  =       -36.27889884 eV

  energy without entropy =      -36.27889884  energy(sigma->0) =      -36.27889884
  exchange ACFDT corr.  =         0.00000000  see jH, gK, PRB 81, 115126


--------------------------------------------------------------------------------------------------------




 average (electrostatic) potential at core
  the test charge radii are     1.0894  0.9698
  (the norm of the test charge is              1.0000)
       1 -95.3101       2 -95.3101       3 -95.3101       4 -95.3101       5 -81.3795
       6 -81.3795       7 -81.3795       8 -81.3795
 
 
 
 E-fermi :   5.4616     XC(G=0):  -7.8819     alpha+bet :-11.0823

 Fermi energy:         5.4616306526

 spin component 1

 k-point     1 :       0.0000    0.0000    0.0000
  band No.  band energies     occupation 
      1     -18.2480      1.00000
      2     -18.2432      1.00000
      3     -18.2374      1.00000
      4     -18.2339      1.00000
      5     -18.2278      1.00000
      6     -18.2257      1.00000
      7     -18.2215      1.00000
      8     -18.2193      1.00000
      9     -18.1851      1.00000
     10     -18.1717      1.00000
     11     -18.1607      1.00000
     12     -18.1600      1.00000
     13     -18.1496      1.00000
     14     -18.1474      1.00000
     15     -18.1316      1.00000
     16     -18.1212      1.00000
     17     -18.1209      1.00000
     18     -18.1195      1.00000
     19     -18.1098      1.00000
     20     -18.1081      1.00000
     21      -9.6334      1.00000
     22      -9.3389      1.00000
     23      -8.2649      1.00000
     24      -7.8212      1.00000
     25      -2.6749      1.00000
     26      -1.6459      1.00000
     27      -0.6273      1.00000
     28       0.2787      1.00000
     29       0.3272      1.00000
     30       1.2761      1.00000
     31       1.7246      1.00000
     32       1.7269      1.00000
     33       1.7759      1.00000
     34       2.0744      1.00000
     35       2.9500      1.00000
     36       3.0729      1.00000
     37       3.3941      1.00000
     38       4.2300      1.00000
     39       4.4677      1.00000
     40       5.1557      1.00000
     41       6.8921      0.00000
     42       8.7391      0.00000
     43       8.9508      0.00000
     44       9.0057      0.00000
     45       9.2503      0.00000
     46       9.7430      0.00000
     47       9.8889      0.00000
     48      11.0438      0.00000
     49      11.2577      0.00000
     50      11.5950      0.00000
     51      11.7098      0.00000
     52      12.2474      0.00000
     53      12.6675      0.00000
     54      13.0559      0.00000
     55      13.4970      0.00000
     56      13.6658      0.00000
     57      13.8524      0.00000
     58      14.5641      0.00000
     59      14.7957      0.00000
     60      14.9554      0.00000

 k-point     2 :       0.0000    0.5000    0.5000
  band No.  band energies     occupation 
      1     -18.2403      1.00000
      2     -18.2403      1.00000
      3     -18.2344      1.00000
      4     -18.2344      1.00000
      5     -18.2250      1.00000
      6     -18.2250      1.00000
      7     -18.2201      1.00000
      8     -18.2201      1.00000
      9     -18.1606      1.00000
     10     -18.1606      1.00000
     11     -18.1577      1.00000
     12     -18.1577      1.00000
     13     -18.1502      1.00000
     14     -18.1502      1.00000
     15     -18.1206      1.00000
     16     -18.1206      1.00000
     17     -18.1193      1.00000
     18     -18.1193      1.00000
     19     -18.1115      1.00000
     20     -18.1115      1.00000
     21      -8.7318      1.00000
     22      -8.7318      1.00000
     23      -8.4879      1.00000
     24      -8.4879      1.00000
     25      -3.1200      1.00000
     26      -3.1200      1.00000
     27      -2.0713      1.00000
     28      -2.0713      1.00000
     29       2.2490      1.00000
     30       2.2490      1.00000
     31       2.4138      1.00000
     32       2.4138      1.00000
     33       2.7307      1.00000
     34       2.7307      1.00000
     35       2.9535      1.00000
     36       2.9535      1.00000
     37       4.4528      1.00000
     38       4.4528      1.00000
     39       5.3285      1.00000
     40       5.3285      1.00000
     41       7.6715      0.00000
     42       7.6715      0.00000
     43       8.0415      0.00000
     44       8.0415      0.00000
     45       8.7805      0.00000
     46       8.7805      0.00000
     47       9.6762      0.00000
     48       9.6762      0.00000
     49      10.0396      0.00000
     50      10.0396      0.00000
     51      11.2004      0.00000
     52      11.2004      0.00000
     53      13.8933      0.00000
     54      13.8933      0.00000
     55      14.5485      0.00000
     56      14.5485      0.00000
     57      14.9733      0.00000
     58      14.9733      0.00000
     59      15.4961      0.00000
     60      15.4976      0.00000

 k-point     3 :       0.2857    0.0000    0.0000
  band No.  band energies     occupation 
      1     -18.2274      1.00000
      2     -18.2269      1.00000
      3     -18.2269      1.00000
      4     -18.2269      1.00000
      5     -18.2100      1.00000
      6     -18.2060      1.00000
      7     -18.2034      1.00000
      8     -18.2011      1.00000
      9     -18.1864      1.00000
     10     -18.1736      1.00000
     11     -18.1688      1.00000
     12     -18.1599      1.00000
     13     -18.1488      1.00000
     14     -18.1451      1.00000
     15     -18.1373      1.00000
     16     -18.1283      1.00000
     17     -18.1168      1.00000
     18     -18.1080      1.00000
     19     -18.1046      1.00000
     20     -18.1016      1.00000
     21      -9.0915      1.00000
     22      -8.8545      1.00000
     23      -8.0620      1.00000
     24      -7.8080      1.00000
     25      -3.0244      1.00000
     26      -2.2764      1.00000
     27      -1.4301      1.00000
     28      -1.1634      1.00000
     29       0.4614      1.00000
     30       1.5187      1.00000
     31       1.8189      1.00000
     32       1.9443      1.00000
     33       2.1492      1.00000
     34       2.3104      1.00000
     35       3.0363      1.00000
     36       3.1624      1.00000
     37       3.4057      1.00000
     38       4.3767      1.00000
     39       4.5636      1.00000
     40       5.0474      1.00000
     41       6.8564      0.00000
     42       7.5933      0.00000
     43       8.2182      0.00000
     44       8.3765      0.00000
     45       8.7626      0.00000
     46       9.2502      0.00000
     47       9.5455      0.00000
     48       9.9046      0.00000
     49      10.6218      0.00000
     50      10.7123      0.00000
     51      11.2420      0.00000
     52      11.4730      0.00000
     53      12.5580      0.00000
     54      13.0130      0.00000
     55      13.0673      0.00000
     56      13.7913      0.00000
     57      13.8718      0.00000
     58      14.0988      0.00000
     59      15.0329      0.00000
     60      15.4581      0.00000
 Fermi energy:         5.4616306526

 spin component 2

 k-point     1 :       0.0000    0.0000    0.0000
  band No.  band energies     occupation 
      1     -18.2481      1.00000
      2     -18.2433      1.00000
      3     -18.2375      1.00000
      4     -18.2340      1.00000
      5     -18.2279      1.00000
      6     -18.2258      1.00000
      7     -18.2216      1.00000
      8     -18.2194      1.00000
      9     -18.1852      1.00000
     10     -18.1718      1.00000
     11     -18.1608      1.00000
     12     -18.1601      1.00000
     13     -18.1497      1.00000
     14     -18.1475      1.00000
     15     -18.1317      1.00000
     16     -18.1213      1.00000
     17     -18.1210      1.00000
     18     -18.1196      1.00000
     19     -18.1099      1.00000
     20     -18.1082      1.00000
     21      -9.6337      1.00000
     22      -9.3393      1.00000
     23      -8.2652      1.00000
     24      -7.8215      1.00000
     25      -2.6753      1.00000
     26      -1.6462      1.00000
     27      -0.6278      1.00000
     28       0.2782      1.00000
     29       0.3268      1.00000
     30       1.2757      1.00000
     31       1.7242      1.00000
     32       1.7265      1.00000
     33       1.7755      1.00000
     34       2.0740      1.00000
     35       2.9497      1.00000
     36       3.0725      1.00000
     37       3.3938      1.00000
     38       4.2296      1.00000
     39       4.4673      1.00000
     40       5.1553      1.00000
     41       6.8915      0.00000
     42       8.7385      0.00000
     43       8.9503      0.00000
     44       9.0051      0.00000
     45       9.2498      0.00000
     46       9.7424      0.00000
     47       9.8885      0.00000
     48      11.0434      0.00000
     49      11.2573      0.00000
     50      11.5944      0.00000
     51      11.7094      0.00000
     52      12.2466      0.00000
     53      12.6671      0.00000
     54      13.0554      0.00000
     55      13.4964      0.00000
     56      13.6651      0.00000
     57      13.8518      0.00000
     58      14.5635      0.00000
     59      14.7951      0.00000
     60      14.9550      0.00000

 k-point     2 :       0.0000    0.5000    0.5000
  band No.  band energies     occupation 
      1     -18.2404      1.00000
      2     -18.2404      1.00000
      3     -18.2345      1.00000
      4     -18.2345      1.00000
      5     -18.2251      1.00000
      6     -18.2251      1.00000
      7     -18.2202      1.00000
      8     -18.2202      1.00000
      9     -18.1608      1.00000
     10     -18.1608      1.00000
     11     -18.1578      1.00000
     12     -18.1578      1.00000
     13     -18.1503      1.00000
     14     -18.1503      1.00000
     15     -18.1207      1.00000
     16     -18.1207      1.00000
     17     -18.1194      1.00000
     18     -18.1194      1.00000
     19     -18.1116      1.00000
     20     -18.1116      1.00000
     21      -8.7322      1.00000
     22      -8.7322      1.00000
     23      -8.4883      1.00000
     24      -8.4883      1.00000
     25      -3.1205      1.00000
     26      -3.1205      1.00000
     27      -2.0717      1.00000
     28      -2.0717      1.00000
     29       2.2485      1.00000
     30       2.2485      1.00000
     31       2.4134      1.00000
     32       2.4134      1.00000
     33       2.7303      1.00000
     34       2.7303      1.00000
     35       2.9532      1.00000
     36       2.9532      1.00000
     37       4.4524      1.00000
     38       4.4524      1.00000
     39       5.3281      1.00000
     40       5.3281      1.00000
     41       7.6710      0.00000
     42       7.6710      0.00000
     43       8.0410      0.00000
     44       8.0410      0.00000
     45       8.7800      0.00000
     46       8.7800      0.00000
     47       9.6758      0.00000
     48       9.6758      0.00000
     49      10.0391      0.00000
     50      10.0391      0.00000
     51      11.1999      0.00000
     52      11.1999      0.00000
     53      13.8925      0.00000
     54      13.8925      0.00000
     55      14.5479      0.00000
     56      14.5479      0.00000
     57      14.9725      0.00000
     58      14.9725      0.00000
     59      15.4946      0.00000
     60      15.4984      0.00000

 k-point     3 :       0.2857    0.0000    0.0000
  band No.  band energies     occupation 
      1     -18.2275      1.00000
      2     -18.2271      1.00000
      3     -18.2270      1.00000
      4     -18.2270      1.00000
      5     -18.2101      1.00000
      6     -18.2061      1.00000
      7     -18.2035      1.00000
      8     -18.2012      1.00000
      9     -18.1866      1.00000
     10     -18.1737      1.00000
     11     -18.1689      1.00000
     12     -18.1601      1.00000
     13     -18.1490      1.00000
     14     -18.1452      1.00000
     15     -18.1374      1.00000
     16     -18.1284      1.00000
     17     -18.1169      1.00000
     18     -18.1081      1.00000
     19     -18.1047      1.00000
     20     -18.1018      1.00000
     21      -9.0919      1.00000
     22      -8.8548      1.00000
     23      -8.0624      1.00000
     24      -7.8083      1.00000
     25      -3.0248      1.00000
     26      -2.2768      1.00000
     27      -1.4305      1.00000
     28      -1.1637      1.00000
     29       0.4610      1.00000
     30       1.5183      1.00000
     31       1.8185      1.00000
     32       1.9439      1.00000
     33       2.1489      1.00000
     34       2.3100      1.00000
     35       3.0359      1.00000
     36       3.1620      1.00000
     37       3.4053      1.00000
     38       4.3763      1.00000
     39       4.5632      1.00000
     40       5.0470      1.00000
     41       6.8558      0.00000
     42       7.5928      0.00000
     43       8.2177      0.00000
     44       8.3760      0.00000
     45       8.7621      0.00000
     46       9.2497      0.00000
     47       9.5450      0.00000
     48       9.9041      0.00000
     49      10.6214      0.00000
     50      10.7117      0.00000
     51      11.2415      0.00000
     52      11.4726      0.00000
     53      12.5573      0.00000
     54      13.0124      0.00000
     55      13.0666      0.00000
     56      13.7906      0.00000
     57      13.8711      0.00000
     58      14.0981      0.00000
     59      15.0322      0.00000
     60      15.4572      0.00000


--------------------------------------------------------------------------------------------------------


 soft charge-density along one line, spin component           1
         0         1         2         3         4         5         6         7         8         9
 total charge-density along one line
 
 soft charge-density along one line, spin component           2
         0         1         2         3         4         5         6         7         8         9
 total charge-density along one line
 
 pseudopotential strength for first ion, spin component:           1
-14.859   0.000   0.000  -0.024   0.000   1.848  -0.000  -0.000
  0.000 -14.834  -0.007  -0.000   0.017  -0.000   1.834   0.004
  0.000  -0.007 -14.807   0.000  -0.004  -0.000   0.004   1.823
 -0.024  -0.000   0.000 -14.830   0.000   0.011   0.000  -0.000
  0.000   0.017  -0.004   0.000 -14.881  -0.000  -0.009   0.002
  1.848  -0.000  -0.000   0.011  -0.000   4.979  -0.000  -0.000
 -0.000   1.834   0.004   0.000  -0.009  -0.000   4.987  -0.002
 -0.000   0.004   1.823  -0.000   0.002  -0.000  -0.002   4.988
  0.011   0.000  -0.000   1.833  -0.000  -0.003   0.000   0.000
 -0.000  -0.009   0.002  -0.000   1.856   0.000   0.004  -0.000
 -0.000  -0.003   0.002   0.000   0.003   0.000   0.005  -0.007
  0.000   0.007  -0.006  -0.000  -0.005  -0.000  -0.008   0.011
 -0.000   0.015   0.011   0.000   0.011  -0.000   0.002  -0.002
  0.000  -0.012   0.021  -0.000   0.000   0.000  -0.003  -0.001
 -0.021   0.000   0.000   0.016  -0.000   0.003   0.000  -0.000
 -0.000   0.024   0.018   0.000   0.017  -0.000   0.004  -0.002
  0.000  -0.018   0.032  -0.000   0.000   0.000  -0.006   0.000
 -0.033   0.000   0.000   0.025  -0.000   0.004   0.000  -0.000
 pseudopotential strength for first ion, spin component:           2
-14.859   0.000   0.000  -0.024  -0.000   1.848  -0.000  -0.000
  0.000 -14.835  -0.007  -0.000   0.017  -0.000   1.834   0.004
  0.000  -0.007 -14.807   0.000  -0.004  -0.000   0.004   1.823
 -0.024  -0.000   0.000 -14.831   0.000   0.011   0.000  -0.000
 -0.000   0.017  -0.004   0.000 -14.881   0.000  -0.009   0.002
  1.848  -0.000  -0.000   0.011   0.000   4.979  -0.000   0.000
 -0.000   1.834   0.004   0.000  -0.009  -0.000   4.987  -0.002
 -0.000   0.004   1.823  -0.000   0.002   0.000  -0.002   4.988
  0.011   0.000  -0.000   1.833  -0.000  -0.003   0.000  -0.000
  0.000  -0.009   0.002  -0.000   1.856  -0.000   0.004  -0.000
 -0.000  -0.003   0.002   0.000   0.003   0.000   0.005  -0.007
  0.000   0.007  -0.006  -0.000  -0.005  -0.000  -0.008   0.011
 -0.000   0.015   0.011  -0.000   0.011   0.000   0.002  -0.002
 -0.000  -0.012   0.021  -0.000   0.000   0.000  -0.003  -0.001
 -0.021  -0.000   0.000   0.016  -0.000   0.003   0.000  -0.000
 -0.000   0.024   0.018  -0.000   0.017   0.000   0.004  -0.002
 -0.000  -0.018   0.032  -0.000   0.000   0.000  -0.006   0.000
 -0.033  -0.000   0.000   0.025  -0.000   0.004   0.000  -0.000
 total augmentation occupancy for first ion, spin component:           1
  1.995  -0.000  -0.000   0.000   0.000  -0.005  -0.000  -0.000  -0.001   0.000  -0.000  -0.000  -0.000  -0.000   0.036   0.000
 -0.000   1.994   0.000   0.000   0.000  -0.000  -0.011   0.001   0.000   0.000  -0.003  -0.003  -0.122   0.144  -0.000   0.076
 -0.000   0.000   1.994  -0.000   0.000  -0.000   0.001  -0.007  -0.000  -0.002   0.004   0.003  -0.026  -0.104   0.000   0.016
  0.000   0.000  -0.000   1.994  -0.000  -0.001  -0.000  -0.000  -0.010  -0.000   0.000   0.000  -0.000  -0.000  -0.118   0.000
  0.000   0.000   0.000  -0.000   1.994   0.000   0.000  -0.002  -0.000  -0.008  -0.001   0.002  -0.140   0.001  -0.000   0.088
 -0.005  -0.000  -0.000  -0.001   0.000   0.054   0.000  -0.000  -0.009  -0.000   0.000   0.000  -0.000   0.000  -0.266   0.000
 -0.000  -0.011   0.001  -0.000   0.000   0.000   0.021   0.011   0.000  -0.006  -0.005   0.001   0.052   0.045  -0.000  -0.016
 -0.000   0.001  -0.007  -0.000  -0.002  -0.000   0.011   0.054   0.000  -0.009  -0.001  -0.002   0.150   0.165   0.000  -0.046
 -0.001   0.000  -0.000  -0.010  -0.000  -0.009   0.000   0.000   0.011  -0.000   0.000   0.000  -0.000   0.000   0.070   0.000
  0.000   0.000  -0.002  -0.000  -0.008  -0.000  -0.006  -0.009  -0.000   0.017   0.022   0.004  -0.061  -0.001   0.000   0.016
 -0.000  -0.003   0.004   0.000  -0.001   0.000  -0.005  -0.001   0.000   0.022   2.175   0.077   0.257  -0.247  -0.000  -0.044
 -0.000  -0.003   0.003   0.000   0.002   0.000   0.001  -0.002   0.000   0.004   0.077   0.013  -0.050   0.063  -0.000   0.015
 -0.000  -0.122  -0.026  -0.000  -0.140  -0.000   0.052   0.150  -0.000  -0.061   0.257  -0.050   1.845  -0.179   0.000  -0.541
 -0.000   0.144  -0.104  -0.000   0.001   0.000   0.045   0.165   0.000  -0.001  -0.247   0.063  -0.179   2.441  -0.000   0.025
  0.036  -0.000   0.000  -0.118  -0.000  -0.266  -0.000   0.000   0.070   0.000  -0.000  -0.000   0.000  -0.000   1.752  -0.000
  0.000   0.076   0.016   0.000   0.088   0.000  -0.016  -0.046   0.000   0.016  -0.044   0.015  -0.541   0.025  -0.000   0.169
  0.000  -0.090   0.065   0.000  -0.001  -0.000  -0.012  -0.050  -0.000   0.001   0.026  -0.018   0.024  -0.715   0.000  -0.002
 -0.024   0.000  -0.000   0.074   0.000   0.073   0.000  -0.000  -0.020  -0.000   0.000   0.000  -0.000   0.000  -0.498   0.000
 total augmentation occupancy for first ion, spin component:           2
  0.000  -0.000   0.000  -0.000  -0.000   0.000  -0.000   0.000  -0.000   0.000  -0.000  -0.000  -0.000  -0.000  -0.000   0.000
 -0.000   0.000   0.000  -0.000   0.000  -0.000   0.000   0.000  -0.000   0.000  -0.000  -0.000  -0.000   0.000   0.000   0.000
  0.000   0.000   0.000   0.000   0.000   0.000  -0.000   0.000  -0.000   0.000  -0.000   0.000   0.000  -0.000   0.000  -0.000
 -0.000  -0.000   0.000   0.000   0.000   0.000  -0.000   0.000   0.000   0.000  -0.000  -0.000  -0.000   0.000   0.000   0.000
 -0.000   0.000   0.000   0.000   0.000  -0.000  -0.000   0.000  -0.000   0.000  -0.000  -0.000   0.000   0.000  -0.000  -0.000
  0.000  -0.000   0.000   0.000  -0.000  -0.000   0.000  -0.000   0.000  -0.000  -0.000   0.000  -0.000  -0.000   0.000   0.000
 -0.000   0.000  -0.000  -0.000  -0.000   0.000  -0.000  -0.000   0.000   0.000   0.000   0.000  -0.000  -0.000  -0.000   0.000
  0.000   0.000   0.000   0.000   0.000  -0.000  -0.000  -0.000   0.000   0.000  -0.000  -0.000  -0.000  -0.000   0.000   0.000
 -0.000  -0.000  -0.000   0.000  -0.000   0.000   0.000   0.000  -0.000  -0.000   0.000   0.000   0.000   0.000  -0.000   0.000
  0.000   0.000   0.000   0.000   0.000  -0.000   0.000   0.000  -0.000   0.000  -0.000  -0.000   0.000   0.000   0.000   0.000
 -0.000  -0.000  -0.000  -0.000  -0.000  -0.000   0.000  -0.000   0.000  -0.000  -0.000   0.000   0.000  -0.000   0.000  -0.000
 -0.000  -0.000   0.000  -0.000  -0.000   0.000   0.000  -0.000   0.000  -0.000   0.000   0.000   0.000  -0.000  -0.000  -0.000
 -0.000  -0.000   0.000  -0.000   0.000  -0.000  -0.000  -0.000   0.000   0.000   0.000   0.000   0.000  -0.000   0.000  -0.000
 -0.000   0.000  -0.000   0.000   0.000  -0.000  -0.000  -0.000   0.000   0.000  -0.000  -0.000  -0.000   0.000  -0.000   0.000
 -0.000   0.000   0.000   0.000  -0.000   0.000  -0.000   0.000  -0.000   0.000   0.000  -0.000   0.000  -0.000   0.000  -0.000
  0.000   0.000  -0.000   0.000  -0.000   0.000   0.000   0.000   0.000   0.000  -0.000  -0.000  -0.000   0.000  -0.000   0.000
  0.000  -0.000   0.000  -0.000  -0.000   0.000   0.000   0.000  -0.000  -0.000   0.000   0.000   0.000  -0.000   0.000  -0.000
  0.000  -0.000  -0.000  -0.000   0.000  -0.000   0.000  -0.000   0.000  -0.000  -0.000   0.000  -0.000   0.000  -0.000   0.000


------------------------ aborting loop because EDIFF is reached ----------------------------------------





 total charge

# of ion       s       p       d       tot
------------------------------------------
    1        1.370   0.715  10.018  12.102
    2        1.370   0.715  10.018  12.102
    3        1.370   0.715  10.018  12.102
    4        1.370   0.715  10.018  12.102
    5        1.339   2.441   0.000   3.779
    6        1.339   2.441   0.000   3.779
    7        1.339   2.441   0.000   3.779
    8        1.339   2.441   0.000   3.779
--------------------------------------------------
tot         10.833  12.622  40.073  63.527



 magnetization (x)

# of ion       s       p       d       tot
------------------------------------------
    1        0.000  -0.000   0.000   0.000
    2        0.000  -0.000   0.000   0.000
    3        0.000  -0.000   0.000   0.000
    4        0.000  -0.000   0.000   0.000
    5        0.000   0.000   0.000   0.000
    6        0.000   0.000   0.000   0.000
    7        0.000   0.000   0.000   0.000
    8        0.000   0.000   0.000   0.000
--------------------------------------------------
tot          0.000   0.000   0.000   0.000
 
    CHARGE:  cpu time      0.0119: real time      0.0119
    FORLOC:  cpu time      0.0008: real time      0.0009
    FORHF :  cpu time      0.8873: real time      0.8904
    FORNL :  cpu time      0.0224: real time      0.0225
    FORCOR:  cpu time      0.9853: real time      0.9881
    FORHAR:  cpu time      0.0056: real time      0.0060
    MIXING:  cpu time      0.0002: real time      0.0002
    OFIELD:  cpu time      0.0006: real time      0.0009

 VOLUME and BASIS-vectors are now :
 -----------------------------------------------------------------------------
  energy-cutoff  :      680.00
  volume of cell :      204.32
      direct lattice vectors                 reciprocal lattice vectors
     3.956855210  0.000000000  0.000000000     0.252725952  0.000000000  0.000000000
    -0.000000000  4.532810690  0.000000000     0.000000000  0.220613670  0.000000000
     0.000000000  0.000000000 11.392018510    -0.000000000 -0.000000000  0.087780756

  length of vectors
     3.956855210  4.532810690 11.392018510     0.252725952  0.220613670  0.087780756


 FORCES acting on ions
    electron-ion (+dipol)            ewald-force                    non-local-force                 convergence-correction
 -----------------------------------------------------------------------------------------------
   -.510E-05 -.230E+02 0.673E+02   0.369E-13 0.343E+02 -.798E+02   0.738E-15 -.112E+02 0.127E+02   0.197E-04 -.210E-02 0.198E-02
   0.534E-05 0.230E+02 -.673E+02   -.225E-13 -.343E+02 0.798E+02   -.738E-15 0.112E+02 -.127E+02   -.124E-04 0.208E-02 -.197E-02
   -.717E-05 -.230E+02 -.673E+02   -.200E-13 0.343E+02 0.798E+02   0.738E-15 -.112E+02 -.127E+02   -.584E-05 -.210E-02 -.197E-02
   -.403E-05 0.230E+02 0.673E+02   0.134E-13 -.343E+02 -.798E+02   -.738E-15 0.112E+02 0.127E+02   -.400E-06 0.211E-02 0.194E-02
   0.116E-05 -.502E+02 -.548E+02   0.150E-13 0.497E+02 0.562E+02   -.295E-16 0.445E+00 -.171E+01   0.200E-05 0.122E-03 -.678E-04
   0.247E-05 0.502E+02 0.548E+02   -.297E-13 -.497E+02 -.562E+02   0.295E-16 -.445E+00 0.171E+01   -.192E-05 -.121E-03 0.807E-04
   0.967E-05 -.502E+02 0.548E+02   -.137E-13 0.497E+02 -.562E+02   -.295E-16 0.445E+00 0.171E+01   -.244E-05 0.121E-03 0.660E-04
   0.344E-06 0.502E+02 -.548E+02   0.151E-13 -.497E+02 0.562E+02   0.295E-16 -.445E+00 -.171E+01   0.200E-05 -.120E-03 -.797E-04
 -----------------------------------------------------------------------------------------------
   0.268E-05 0.475E-05 0.154E-04   -.550E-14 0.000E+00 -.213E-13   -.454E-21 0.000E+00 -.178E-14   0.703E-06 -.760E-05 -.227E-04
 
 
 POSITION                                       TOTAL-FORCE (eV/Angst)
 -----------------------------------------------------------------------------------
      0.98921      1.67505      7.08165         0.000000     -0.341456      0.709623
      2.96764      2.85776      4.31037        -0.000000      0.341456     -0.709623
      2.96764      3.94146     10.00638         0.000000     -0.341456     -0.709623
      0.98921      0.59135      1.38564        -0.000000      0.341456      0.709623
      0.98921      0.04803      3.95870         0.000000     -0.082987     -0.518273
      2.96764      4.48478      7.43332        -0.000000      0.082987      0.518273
      2.96764      2.31444      1.73731         0.000000     -0.082987      0.518273
      0.98921      2.21837      9.65471        -0.000000      0.082987     -0.518273
 -----------------------------------------------------------------------------------
    total drift:                                0.000003     -0.000003     -0.000007


--------------------------------------------------------------------------------------------------------



  FREE ENERGIE OF THE ION-ELECTRON SYSTEM (eV)
  ---------------------------------------------------
  free  energy   TOTEN  =       -36.27889884 eV

  energy  without entropy=      -36.27889884  energy(sigma->0) =      -36.27889884
 


--------------------------------------------------------------------------------------------------------


    POTLOK:  cpu time      0.9832: real time      0.9859


--------------------------------------------------------------------------------------------------------


 writing wavefunctions
     LOOP+:  cpu time     39.7336: real time     40.2956
    4ORBIT:  cpu time      0.0000: real time      0.0000



 total charge

# of ion       s       p       d       tot
------------------------------------------
    1        1.370   0.715  10.018  12.102
    2        1.370   0.715  10.018  12.102
    3        1.370   0.715  10.018  12.102
    4        1.370   0.715  10.018  12.102
    5        1.339   2.441   0.000   3.779
    6        1.339   2.441   0.000   3.779
    7        1.339   2.441   0.000   3.779
    8        1.339   2.441   0.000   3.779
--------------------------------------------------
tot         10.833  12.622  40.073  63.527



 magnetization (x)

# of ion       s       p       d       tot
------------------------------------------
    1        0.000  -0.000   0.000   0.000
    2        0.000  -0.000   0.000   0.000
    3        0.000  -0.000   0.000   0.000
    4        0.000  -0.000   0.000   0.000
    5        0.000   0.000   0.000   0.000
    6        0.000   0.000   0.000   0.000
    7        0.000   0.000   0.000   0.000
    8        0.000   0.000   0.000   0.000
--------------------------------------------------
tot          0.000   0.000   0.000   0.000
 

 total amount of memory used by VASP MPI-rank0    43082. kBytes
=======================================================================

   base      :      30000. kBytes
   nonl-proj :        845. kBytes
   fftplans  :       1141. kBytes
   grid      :       2524. kBytes
   one-center:         31. kBytes
   HF        :         64. kBytes
   nonlr-proj:       1215. kBytes
   wavefun   :        420. kBytes
   fock_wrk  :       6842. kBytes
 
  
  
 General timing and accounting informations for this job:
 ========================================================
  
                  Total CPU time used (sec):       53.487
                            User time (sec):       50.635
                          System time (sec):        2.851
                         Elapsed time (sec):       55.112
  
                   Maximum memory used (kb):      295092.
                   Average memory used (kb):          N/A
  
                          Minor page faults:        59659
                          Major page faults:            0
                 Voluntary context switches:         2416
