 vasp.6.4.2 20Jul23 (build Mar 15 2024 16:31:38) complex                        
  
 executed on             LinuxIFC date 2025.04.01  14:48:53
 running  120 mpi-ranks, on    3 nodes
 distrk:  each k-point on  120 cores,    1 groups
 distr:  one band on NCORE=  20 cores,    6 groups


--------------------------------------------------------------------------------------------------------


 INCAR:
   ALGO = Normal
   CSHIFT = 1e-05
   EDIFF = 1e-05
   ENAUG = 1360
   ENCUT = 680
   GGA = Pe
   HFSCREEN = 0.2
   ISMEAR = -5
   ISPIN = 1
   LAECHG = True
   LASPH = True
   LCHARG = False
   LDAU = False
   LELF = False
   LHFCALC = True
   LMAXMIX = 4
   LMIXTAU = True
   LOPTICS = True
   LORBIT = 11
   LREAL = False
   LVTOT = True
   LWAVE = False
   NBANDS = 173
   NCORE = 20
   NEDOS = 1782
   NELM = 200
   NELMIN = 5
   NSW = 0
   PREC = Accurate
   PRECFOCK = Accurate
   SIGMA = 0.05

 POTCAR:    PAW_PBE Rb_sv 06Sep2000               
 POTCAR:    PAW_PBE In_d 06Sep2000                
 POTCAR:    PAW_PBE S 06Sep2000                   
 WARNING: For LVTOT=.TRUE., VASP.5.x writes the TOTAL local potential to the
     file LOCPOT. If you want only the Hartree contributions, use LVHAR=.TRUE.
     instead. 

 POTCAR:    PAW_PBE Rb_sv 06Sep2000               
   VRHFIN =Rb: 4s4p5s                                                                               
   LEXCH  = PE                                                                                      
   EATOM  =   662.5034 eV,   48.6926 Ry                                                             
                                                                                                    
   TITEL  = PAW_PBE Rb_sv 06Sep2000                                                                 
   LULTRA =        F    use ultrasoft PP ?                                                          
   IUNSCR =        1    unscreen: 0-lin 1-nonlin 2-no                                               
   RPACOR =    2.200    partial core radius                                                         
   POMASS =   85.468; ZVAL   =    9.000    mass and valenz                                          
   RCORE  =    2.500    outmost cutoff radius                                                       
   RWIGS  =    4.570; RWIGS  =    2.418    wigner-seitz radius (au A)                               
   ENMAX  =  220.112; ENMIN  =  165.084 eV                                                          
   RCLOC  =    2.200    cutoff for local pot                                                        
   LCOR   =        T    correct aug charges                                                         
   LPAW   =        T    paw PP                                                                      
   EAUG   =  423.861                                                                                
   DEXC   =    0.000                                                                                
   RMAX   =    2.546    core radius for proj-oper                                                   
   RAUG   =    1.300    factor for augmentation sphere                                              
   RDEP   =    2.541    radius for radial grids                                                     
   RDEPT  =    2.044    core radius for aug-charge                                                  
                                                                                                    
   Atomic configuration                                                                             
   10 entries                                                                                       
     n  l   j            E        occ.                                                              
     1  0  0.50    -15031.5419   2.0000                                                             
     2  0  0.50     -2007.8842   2.0000                                                             
     2  1  1.50     -1779.8144   6.0000                                                             
     3  0  0.50      -297.9619   2.0000                                                             
     3  1  1.50      -224.8335   6.0000                                                             
     3  2  2.50      -103.9539  10.0000                                                             
     4  0  0.50       -31.8932   2.0000                                                             
     5  0  0.50        -2.2327   0.9990                                                             
     4  1  1.50       -15.9645   6.0000                                                             
     4  2  1.50        -0.0020   0.0010                                                             
   Description                                                                                      
     l       E           TYP  RCUT    TYP  RCUT                                                     
     0    -31.8932387     23  2.500                                                                 
     0     -2.2326525     23  2.500                                                                 
     1    -15.9644597     23  2.500                                                                 
     1    -17.3250423     23  2.500                                                                 
     2     -0.0020100     23  2.500                                                                 
  local pseudopotential read in
  partial core-charges read in
  partial kinetic energy density read in
  atomic valenz-charges read in
  non local Contribution for L=           0  read in
    real space projection operators read in
  non local Contribution for L=           0  read in
    real space projection operators read in
  non local Contribution for L=           1  read in
    real space projection operators read in
  non local Contribution for L=           1  read in
    real space projection operators read in
  non local Contribution for L=           2  read in
    real space projection operators read in
    PAW grid and wavefunctions read in
 
   number of l-projection  operators is LMAX  =           5
   number of lm-projection operators is LMMAX =          13
 
 POTCAR:    PAW_PBE In_d 06Sep2000                
   VRHFIN =In: s2p1                                                                                 
   LEXCH  = PE                                                                                      
   EATOM  =  1576.8302 eV,  115.8937 Ry                                                             
                                                                                                    
   TITEL  = PAW_PBE In_d 06Sep2000                                                                  
   LULTRA =        F    use ultrasoft PP ?                                                          
   IUNSCR =        1    unscreen: 0-lin 1-nonlin 2-no                                               
   RPACOR =    2.200    partial core radius                                                         
   POMASS =  114.820; ZVAL   =   13.000    mass and valenz                                          
   RCORE  =    2.500    outmost cutoff radius                                                       
   RWIGS  =    3.170; RWIGS  =    1.677    wigner-seitz radius (au A)                               
   ENMAX  =  239.211; ENMIN  =  179.409 eV                                                          
   ICORE  =        3    local potential                                                             
   LCOR   =        T    correct aug charges                                                         
   LPAW   =        T    paw PP                                                                      
   EAUG   =  449.704                                                                                
   DEXC   =    0.000                                                                                
   RMAX   =    2.552    core radius for proj-oper                                                   
   RAUG   =    1.300    factor for augmentation sphere                                              
   RDEP   =    2.630    radius for radial grids                                                     
   RDEPT  =    2.033    core radius for aug-charge                                                  
                                                                                                    
   Atomic configuration                                                                             
   12 entries                                                                                       
     n  l   j            E        occ.                                                              
     1  0  0.50    -27747.9169   2.0000                                                             
     2  0  0.50     -4154.4438   2.0000                                                             
     2  1  1.50     -3728.4305   6.0000                                                             
     3  0  0.50      -788.3680   2.0000                                                             
     3  1  1.50      -648.9215   6.0000                                                             
     3  2  2.50      -432.5893  10.0000                                                             
     4  0  0.50      -119.6363   2.0000                                                             
     4  1  1.50       -78.1086   6.0000                                                             
     4  2  2.50       -18.6227  10.0000                                                             
     5  0  0.50        -8.2107   2.0000                                                             
     5  1  0.50        -2.5185   1.0000                                                             
     4  3  2.50        -2.7212   0.0000                                                             
   Description                                                                                      
     l       E           TYP  RCUT    TYP  RCUT                                                     
     2    -18.6226981     23  2.500                                                                 
     2     -1.3605826     23  2.500                                                                 
     0     -8.2107305     23  2.500                                                                 
     0     -6.1485975     23  2.500                                                                 
     1     -2.5184867     23  2.500                                                                 
     1      3.2427302     23  2.500                                                                 
     3     -1.3605826      7  2.500                                                                 
  local pseudopotential read in
  partial core-charges read in
  partial kinetic energy density read in
  atomic valenz-charges read in
  non local Contribution for L=           2  read in
    real space projection operators read in
  non local Contribution for L=           2  read in
    real space projection operators read in
  non local Contribution for L=           0  read in
    real space projection operators read in
  non local Contribution for L=           0  read in
    real space projection operators read in
  non local Contribution for L=           1  read in
    real space projection operators read in
  non local Contribution for L=           1  read in
    real space projection operators read in
    PAW grid and wavefunctions read in
 
   number of l-projection  operators is LMAX  =           6
   number of lm-projection operators is LMMAX =          18
 
 POTCAR:    PAW_PBE S 06Sep2000                   
   VRHFIN =S : s2p4                                                                                 
   LEXCH  = PE                                                                                      
   EATOM  =   276.8230 eV,   20.3459 Ry                                                             
                                                                                                    
   TITEL  = PAW_PBE S 06Sep2000                                                                     
   LULTRA =        F    use ultrasoft PP ?                                                          
   IUNSCR =        1    unscreen: 0-lin 1-nonlin 2-no                                               
   RPACOR =    1.500    partial core radius                                                         
   POMASS =   32.066; ZVAL   =    6.000    mass and valenz                                          
   RCORE  =    1.900    outmost cutoff radius                                                       
   RWIGS  =    2.200; RWIGS  =    1.164    wigner-seitz radius (au A)                               
   ENMAX  =  258.689; ENMIN  =  194.016 eV                                                          
   ICORE  =        2    local potential                                                             
   LCOR   =        T    correct aug charges                                                         
   LPAW   =        T    paw PP                                                                      
   EAUG   =  335.092                                                                                
   DEXC   =    0.000                                                                                
   RMAX   =    1.942    core radius for proj-oper                                                   
   RAUG   =    1.300    factor for augmentation sphere                                              
   RDEP   =    1.954    radius for radial grids                                                     
   RDEPT  =    1.744    core radius for aug-charge                                                  
                                                                                                    
   Atomic configuration                                                                             
    6 entries                                                                                       
     n  l   j            E        occ.                                                              
     1  0  0.50     -2405.8406   2.0000                                                             
     2  0  0.50      -211.7007   2.0000                                                             
     2  1  1.50      -156.4958   6.0000                                                             
     3  0  0.50       -17.2562   2.0000                                                             
     3  1  0.50        -7.0085   4.0000                                                             
     3  2  1.50        -6.8029   0.0000                                                             
   Description                                                                                      
     l       E           TYP  RCUT    TYP  RCUT                                                     
     0    -17.2561641     23  1.900                                                                 
     0    -15.8743224     23  1.900                                                                 
     1     -7.0085400     23  1.900                                                                 
     1     -2.7779785     23  1.900                                                                 
     2     -6.8029130     23  1.900                                                                 
  local pseudopotential read in
  partial core-charges read in
  partial kinetic energy density read in
  atomic valenz-charges read in
  non local Contribution for L=           0  read in
    real space projection operators read in
  non local Contribution for L=           0  read in
    real space projection operators read in
  non local Contribution for L=           1  read in
    real space projection operators read in
  non local Contribution for L=           1  read in
    real space projection operators read in
    PAW grid and wavefunctions read in
 
   number of l-projection  operators is LMAX  =           4
   number of lm-projection operators is LMMAX =           8
 
 -----------------------------------------------------------------------------
|                                                                             |
|               ----> ADVICE to this user running VASP <----                  |
|                                                                             |
|     You have a (more or less) 'large supercell' and for larger cells it     |
|     might be more efficient to use real-space projection operators.         |
|     Therefore, try LREAL= Auto in the INCAR file.                           |
|     Mind: For very accurate calculation, you might also keep the            |
|     reciprocal projection scheme (i.e. LREAL=.FALSE.).                      |
|                                                                             |
 -----------------------------------------------------------------------------

  PAW_PBE Rb_sv 06Sep2000               :
 energy of atom  1       EATOM= -662.5034
 kinetic energy error for atom=    0.0003 (will be added to EATOM!!)
  PAW_PBE In_d 06Sep2000                :
 energy of atom  2       EATOM=-1576.8302
 kinetic energy error for atom=    0.0009 (will be added to EATOM!!)
  PAW_PBE S 06Sep2000                   :
 energy of atom  3       EATOM= -276.8230
 kinetic energy error for atom=    0.0008 (will be added to EATOM!!)
 
 
 POSCAR: Rb3 In9 S15
  positions in direct lattice
  No initial velocities read in
 exchange correlation table for  LEXCH =        8
   RHO(1)=    0.500       N(1)  =     2000
   RHO(2)=  100.500       N(2)  =     4000
 


--------------------------------------------------------------------------------------------------------


 ion  position               nearest neighbor table
   1  0.500  0.000  0.000-  15 3.56  16 3.56  15 3.56  16 3.56  22 3.59  21 3.59  21 3.59  22 3.59
                            13 3.72  14 3.72  11 4.42  12 4.42   7 4.48   8 4.48   9 4.67  10 4.67
   2  0.862  0.500  0.574-  20 3.42  20 3.42  17 3.51  17 3.51  23 3.55  23 3.55  25 3.63  24 3.68
                            24 3.68   9 4.16   6 4.17   4 4.19  10 4.33   3 4.75
   3  0.138  0.500  0.426-  19 3.42  19 3.42  18 3.51  18 3.51  24 3.55  24 3.55  26 3.63  23 3.68
                            23 3.68  10 4.16   6 4.17   5 4.19   9 4.33   2 4.75
   4  0.825  0.500  0.834-  25 2.58  13 2.60  13 2.60  17 2.62  17 2.62  27 2.63  11 3.83  11 3.83
                            12 3.90  12 3.90   7 3.98   7 3.98   2 4.19
   5  0.175  0.500  0.166-  26 2.58  14 2.60  14 2.60  18 2.62  18 2.62  27 2.63  12 3.83  12 3.83
                            11 3.90  11 3.90   8 3.98   8 3.98   3 4.19
   6  0.500  0.500  0.500-  19 2.62  20 2.62  19 2.62  20 2.62  25 2.63  26 2.63   7 3.72   8 3.72
                             7 3.72   8 3.72   2 4.17   3 4.17
   7  0.520  0.000  0.714-  19 2.54  15 2.59  15 2.59  25 2.61  25 2.61  13 3.00   6 3.72   6 3.72
                             4 3.98   4 3.98   1 4.48
   8  0.480  0.000  0.286-  20 2.54  16 2.59  16 2.59  26 2.61  26 2.61  14 3.00   6 3.72   6 3.72
                             5 3.98   5 3.98   1 4.48
   9  0.223  0.500  0.728-  23 2.45  23 2.45  21 2.50  15 2.50   2 4.16   3 4.33   1 4.67   1 4.67

  10  0.777  0.500  0.272-  24 2.45  24 2.45  22 2.50  16 2.50   3 4.16   2 4.33   1 4.67   1 4.67

  11  0.118  0.000  0.930-  17 2.53  21 2.56  21 2.56  14 2.60  27 2.83  27 2.83   4 3.83   4 3.83
                             5 3.90   5 3.90   1 4.42
  12  0.882  0.000  0.070-  18 2.53  22 2.56  22 2.56  13 2.60  27 2.83  27 2.83   5 3.83   5 3.83
                             4 3.90   4 3.90   1 4.42
  13  0.729  0.000  0.897-  12 2.60   4 2.60   4 2.60   7 3.00   1 3.72
  14  0.271  0.000  0.103-  11 2.60   5 2.60   5 2.60   8 3.00   1 3.72
  15  0.442  0.500  0.790-   9 2.50   7 2.59   7 2.59   1 3.56   1 3.56
  16  0.558  0.500  0.210-  10 2.50   8 2.59   8 2.59   1 3.56   1 3.56
  17  0.934  0.000  0.781-  11 2.53   4 2.62   4 2.62   2 3.51   2 3.51
  18  0.066  0.000  0.219-  12 2.53   5 2.62   5 2.62   3 3.51   3 3.51
  19  0.381  0.000  0.542-   7 2.54   6 2.62   6 2.62   3 3.42   3 3.42
  20  0.619  0.000  0.458-   8 2.54   6 2.62   6 2.62   2 3.42   2 3.42
  21  0.234  0.500  0.894-   9 2.50  11 2.56  11 2.56   1 3.59   1 3.59
  22  0.766  0.500  0.106-  10 2.50  12 2.56  12 2.56   1 3.59   1 3.59
  23  0.124  0.000  0.627-   9 2.45   9 2.45   2 3.55   2 3.55   3 3.68   3 3.68
  24  0.876  0.000  0.373-  10 2.45  10 2.45   3 3.55   3 3.55   2 3.68   2 3.68
  25  0.643  0.500  0.679-   4 2.58   7 2.61   7 2.61   6 2.63   2 3.63
  26  0.357  0.500  0.321-   5 2.58   8 2.61   8 2.61   6 2.63   3 3.63
  27  0.000  0.500  0.000-   4 2.63   5 2.63  11 2.83  12 2.83  11 2.83  12 2.83
 
  LATTYP: Found a simple monoclinic cell.
 ALAT       =    12.3248524156
 B/A-ratio  =     0.3068657009
 C/A-ratio  =     1.2444210980
 COS(beta)  =    -0.3811614101
  
  Lattice vectors:
  
 A1 = (  11.3841042012,   0.0000000000,  -4.7227278772)
 A2 = (   0.0000000000,   3.7820744753,   0.0000000000)
 A3 = (   0.0336253644,   0.0000000000,  15.3372695152)


Analysis of symmetry for initial positions (statically):
=====================================================================
 Subroutine PRICEL returns:
 Original cell was already a primitive cell.
 

 Routine SETGRP: Setting up the symmetry group for a 
 simple monoclinic supercell.


 Subroutine GETGRP returns: Found  4 space group operations
 (whereof  4 operations were pure point group operations)
 out of a pool of  4 trial point group operations.


The static configuration has the point symmetry C_2h.


Analysis of symmetry for dynamics (positions and initial velocities):
=====================================================================
 Subroutine PRICEL returns:
 Original cell was already a primitive cell.
 

 Routine SETGRP: Setting up the symmetry group for a 
 simple monoclinic supercell.


 Subroutine GETGRP returns: Found  4 space group operations
 (whereof  4 operations were pure point group operations)
 out of a pool of  4 trial point group operations.


The dynamic configuration has the point symmetry C_2h.


 Subroutine INISYM returns: Found  4 space group operations
 (whereof  4 operations are pure point group operations),
 and found     1 'primitive' translations


----------------------------------------------------------------------------------------

                                     Primitive cell                                     

  volume of cell :     660.9549

  direct lattice vectors                    reciprocal lattice vectors
    11.384104201  0.000000000 -4.722727877     0.087761961  0.000000000 -0.000192409
    -0.000000000  3.782074475  0.000000000     0.000000000  0.264405158  0.000000000
     0.033625364  0.000000000 15.337269515     0.027024097 -0.000000000  0.065141406

  length of vectors
    12.324852416  3.782074475 15.337306375     0.087762172  0.264405158  0.070524497

  position of ions in fractional coordinates (direct lattice)
     0.500000000  0.000000000  1.000000000
     0.862254858  0.500000000  0.573840188
     0.137745142  0.500000000  0.426159812
     0.825346880  0.500000000  0.834220989
     0.174653120  0.500000000  0.165779011
     0.500000000  0.500000000  0.500000000
     0.519714166  0.000000000  0.714242778
     0.480285834  0.000000000  0.285757222
     0.222956001  0.500000000  0.727707074
     0.777043999  0.500000000  0.272292926
     0.117562974  0.000000000  0.930333208
     0.882437026  0.000000000  0.069666792
     0.729099548  0.000000000  0.897105460
     0.270900452  0.000000000  0.102894540
     0.442176862  0.500000000  0.790149783
     0.557823138  0.500000000  0.209850217
     0.933778294  0.000000000  0.781363037
     0.066221706  0.000000000  0.218636963
     0.381116168  0.000000000  0.541994378
     0.618883832  0.000000000  0.458005622
     0.234152328  0.500000000  0.893831552
     0.765847672  0.500000000  0.106168448
     0.123946171  0.000000000  0.627197971
     0.876053829  0.000000000  0.372802029
     0.643260292  0.500000000  0.678645464
     0.356739708  0.500000000  0.321354536
     0.000000000  0.500000000  1.000000000

  ion indices of the primitive-cell ions
   primitive index   ion index
                 1           1
                 2           2
                 3           3
                 4           4
                 5           5
                 6           6
                 7           7
                 8           8
                 9           9
                10          10
                11          11
                12          12
                13          13
                14          14
                15          15
                16          16
                17          17
                18          18
                19          19
                20          20
                21          21
                22          22
                23          23
                24          24
                25          25
                26          26
                27          27

----------------------------------------------------------------------------------------

 
 
 KPOINTS: pymatgen with grid density = 649 / numbe

Automatic generation of k-mesh.
 Grid dimensions read from file:
 generate k-points for:    2    6    1

 Generating k-lattice:

  Cartesian coordinates                     Fractional coordinates (reciprocal lattice)
     0.043880980  0.000000000 -0.000096204     0.500000000  0.000000000  0.000000000
     0.000000000  0.044067526  0.000000000     0.000000000  0.166666667  0.000000000
     0.027024097 -0.000000000  0.065141406    -0.000000000 -0.000000000  1.000000000

  Length of vectors
     0.043881086  0.044067526  0.070524497

  Shift w.r.t. Gamma in fractional coordinates (k-lattice)
     0.000000000  0.000000000  0.000000000

 TETIRR: Found     36 inequivalent tetrahedra from       72
 
 Subroutine IBZKPT returns following result:
 ===========================================
 
 Found      8 irreducible k-points:
 
 Following reciprocal coordinates:
            Coordinates               Weight
  0.000000  0.000000  0.000000      1.000000
  0.500000 -0.000000 -0.000000      1.000000
  0.000000  0.166667  0.000000      2.000000
  0.500000  0.166667 -0.000000      2.000000
  0.000000  0.333333  0.000000      2.000000
  0.500000  0.333333 -0.000000      2.000000
  0.000000  0.500000  0.000000      1.000000
  0.500000  0.500000 -0.000000      1.000000
 
 Following cartesian coordinates:
            Coordinates               Weight
  0.000000  0.000000  0.000000      1.000000
  0.043881  0.000000 -0.000096      1.000000
  0.000000  0.044068  0.000000      2.000000
  0.043881  0.044068 -0.000096      2.000000
  0.000000  0.088135  0.000000      2.000000
  0.043881  0.088135 -0.000096      2.000000
  0.000000  0.132203  0.000000      1.000000
  0.043881  0.132203 -0.000096      1.000000
 
 
 Subroutine IBZKPT_HF returns following result:
 ==============================================
 
 Found     12 k-points in 1st BZ
 the following     12 k-points will be used (e.g. in the exchange kernel)
 Following reciprocal coordinates:   # in IRBZ
  0.000000  0.000000  0.000000    0.08333333   1 t-inv F
  0.500000 -0.000000 -0.000000    0.08333333   2 t-inv F
  0.000000  0.166667  0.000000    0.08333333   3 t-inv F
  0.500000  0.166667 -0.000000    0.08333333   4 t-inv F
  0.000000  0.333333  0.000000    0.08333333   5 t-inv F
  0.500000  0.333333 -0.000000    0.08333333   6 t-inv F
  0.000000  0.500000  0.000000    0.08333333   7 t-inv F
  0.500000  0.500000 -0.000000    0.08333333   8 t-inv F
  0.000000 -0.166667  0.000000    0.08333333   3 t-inv F
 -0.500000 -0.166667  0.000000    0.08333333   4 t-inv F
  0.000000 -0.333333  0.000000    0.08333333   5 t-inv F
 -0.500000 -0.333333  0.000000    0.08333333   6 t-inv F
 -----------------------------------------------------------------------------
|                                                                             |
|           W    W    AA    RRRRR   N    N  II  N    N   GGGG   !!!           |
|           W    W   A  A   R    R  NN   N  II  NN   N  G    G  !!!           |
|           W    W  A    A  R    R  N N  N  II  N N  N  G       !!!           |
|           W WW W  AAAAAA  RRRRR   N  N N  II  N  N N  G  GGG   !            |
|           WW  WW  A    A  R   R   N   NN  II  N   NN  G    G                |
|           W    W  A    A  R    R  N    N  II  N    N   GGGG   !!!           |
|                                                                             |
|     The number of bands has been changed from the values supplied in        |
|     the INCAR file. This is a result of running the parallel version.       |
|     The orbitals not found in the WAVECAR file will be initialized with     |
|     random numbers, which is usually adequate. For correlated               |
|     calculations, however, you should redo the groundstate calculation.     |
|     I found NBANDS = 173. Now, NBANDS = 174.                                |
|                                                                             |
 -----------------------------------------------------------------------------



--------------------------------------------------------------------------------------------------------




 Dimension of arrays:
   k-points           NKPTS =      8   k-points in BZ     NKDIM =     12   number of bands    NBANDS=    174
   number of dos      NEDOS =   1782   number of ions     NIONS =     27
   non local maximal  LDIM  =      6   non local SUM 2l+1 LMDIM =     18
   total plane-waves  NPLWV = 483840
   max r-space proj   IRMAX =      1   max aug-charges    IRDMAX=  34751
   dimension x,y,z NGX =   108 NGY =   32 NGZ =  140
   dimension x,y,z NGXF=   216 NGYF=   64 NGZF=  280
   support grid    NGXF=   216 NGYF=   64 NGZF=  280
   ions per type =               3   9  15
   NGX,Y,Z   is equivalent  to a cutoff of  14.57, 14.07, 15.18 a.u.
   NGXF,Y,Z  is equivalent  to a cutoff of  29.14, 28.13, 30.35 a.u.

 SYSTEM =  unknown system                          
 POSCAR =  Rb3 In9 S15                             

 Startparameter for this run:
   NWRITE =      2    write-flag & timer
   PREC   = accura    normal or accurate (medium, high low for compatibility)
   ISTART =      0    job   : 0-new  1-cont  2-samecut
   ICHARG =      2    charge: 1-file 2-atom 10-const
   ISPIN  =      1    spin polarized calculation?
   LNONCOLLINEAR =      F non collinear calculations
   LSORBIT =      F    spin-orbit coupling
   INIWAV =      1    electr: 0-lowe 1-rand  2-diag
   LASPH  =      T    aspherical Exc in radial PAW
 Electronic Relaxation 1
   ENCUT  =  680.0 eV  49.98 Ry    7.07 a.u.  26.21  8.04 32.61*2*pi/ulx,y,z
   ENINI  =  680.0     initial cutoff
   ENAUG  = 1360.0 eV  augmentation charge cutoff
   NELM   =    200;   NELMIN=  5; NELMDL=  0     # of ELM steps 
   EDIFF  = 0.1E-04   stopping-criterion for ELM
   LREAL  =      F    real-space projection
   NLSPLINE    = F    spline interpolate recip. space projectors
   LCOMPAT=      F    compatible to vasp.4.4
   GGA_COMPAT  = T    GGA compatible to vasp.4.4-vasp.4.6
   LMAXPAW     = -100 max onsite density
   LMAXMIX     =    4 max onsite mixed and CHGCAR
   VOSKOWN=      0    Vosko Wilk Nusair interpolation
   ROPT   =    0.00000   0.00000   0.00000
 Ionic relaxation
   EDIFFG = 0.1E-03   stopping-criterion for IOM
   NSW    =      0    number of steps for IOM
   NBLOCK =      1;   KBLOCK =      1    inner block; outer block 
   IBRION =     -1    ionic relax: 0-MD 1-quasi-New 2-CG
   NFREE  =      0    steps in history (QN), initial steepest desc. (CG)
   ISIF   =      0    stress and relaxation
   IWAVPR =     10    prediction:  0-non 1-charg 2-wave 3-comb
   ISYM   =      3    0-nonsym 1-usesym 2-fastsym
   LCORR  =      T    Harris-Foulkes like correction to forces

   POTIM  = 0.5000    time-step for ionic-motion
   TEIN   =    0.0    initial temperature
   TEBEG  =    0.0;   TEEND  =   0.0 temperature during run
   SMASS  =  -3.00    Nose mass-parameter (am)
   estimated Nose-frequenzy (Omega)   =  0.10E-29 period in steps = 0.13E+47 mass=  -0.347E-26a.u.
   SCALEE = 1.0000    scale energy and forces
   NPACO  =    256;   APACO  = 10.0  distance and # of slots for P.C.
   PSTRESS=    0.0 pullay stress

  Mass of Ions in am
   POMASS =  85.47114.82 32.07
  Ionic Valenz
   ZVAL   =   9.00 13.00  6.00
  Atomic Wigner-Seitz radii
   RWIGS  =  -1.00 -1.00 -1.00
  virtual crystal weights 
   VCA    =   1.00  1.00  1.00
   NELECT =     234.0000    total number of electrons
   NUPDOWN=      -1.0000    fix difference up-down

 DOS related values:
   EMIN   =  10.00;   EMAX   =-10.00  energy-range for DOS
   EFERMI =   0.00;   METHOD = LEGACY      
   ISMEAR =    -5;   SIGMA  =   0.05  broadening in eV -4-tet -1-fermi 0-gaus

 Electronic relaxation 2 (details)
   IALGO  =     38    algorithm
   LDIAG  =      T    sub-space diagonalisation (order eigenvalues)
   LSUBROT=      F    optimize rotation matrix (better conditioning)
   TURBO    =      0    0=normal 1=particle mesh
   IRESTART =      0    0=no restart 2=restart with 2 vectors
   NREBOOT  =      0    no. of reboots
   NMIN     =      0    reboot dimension
   EREF     =   0.00    reference energy to select bands
   IMIX   =      1    mixing-type and parameters
     AMIX     =   0.40;   BMIX     =  1.00
     AMIX_MAG =   1.60;   BMIX_MAG =  1.00
     AMIN     =   0.10
     WC   =   100.;   INIMIX=   1;  MIXPRE=   1;  MAXMIX= -45

 Intra band minimization:
   WEIMIN = 0.0000     energy-eigenvalue tresh-hold
   EBREAK =  0.14E-07  absolut break condition
   DEPER  =   0.30     relativ break condition  

   TIME   =   0.40     timestep for ELM

  volume/ion in A,a.u.               =      24.48       165.20
  Fermi-wavevector in a.u.,A,eV,Ry     =   1.158127  2.188543 18.248924  1.341258
  Thomas-Fermi vector in A             =   2.294732
 
 Write flags
   LWAVE        =      F    write WAVECAR
   LDOWNSAMPLE  =      F    k-point downsampling of WAVECAR
   LCHARG       =      F    write CHGCAR
   LVTOT        =      T    write LOCPOT, total local potential
   LVHAR        =      F    write LOCPOT, Hartree potential only
   LELF         =      F    write electronic localiz. function (ELF)
   LORBIT       =     11    0 simple, 1 ext, 2 COOP (PROOUT), +10 PAW based schemes


 Dipole corrections
   LMONO  =      F    monopole corrections only (constant potential shift)
   LDIPOL =      F    correct potential (dipole corrections)
   IDIPOL =      0    1-x, 2-y, 3-z, 4-all directions 
   EPSILON=  1.0000000 bulk dielectric constant

 Exchange correlation treatment:
   GGA     =    PE    GGA type
   LEXCH   =     8    internal setting for exchange type
   LIBXC   =     F    Libxc                    
   VOSKOWN =     0    Vosko Wilk Nusair interpolation
   EXXOEP  =     0    0=HF, 1=EXX-LHF (local Hartree Fock) 2=EXX OEP
   LHFCALC =     T    Hartree Fock is set to
   LSYMGRAD=     F    symmetrize gradient (conserves proper symmetry)
   PRECFOCK=accur.    Normal, Fast or Accurate (Low or Medium for compatibility)
   LRHFCALC=     F    long range Hartree Fock
   LRSCOR  =     F    long range correlation only (use DFT for short range part)
   LTHOMAS =     F    Thomas Fermi screening in HF
   LMODELHF=     F    short range full HF, long range fraction AEXX
   FOCKCORR=     1    mode to apply convergence corrections
   LFOCKACE=     T    use Adeptively-Compressed-Exchange operator
   ENCUT4O =  -1.0   cutoff for four orbital integrals eV
   LMAXFOCK=     4    L truncation for augmentation on plane wave grid
   LMAXFOCKAE=  -1    L truncation for all-electron charge restoration on plane wave grid
   NMAXFOCKAE=   1    number of basis functions for all-electron charge restoration
   LFOCKAEDFT=     F  apply the AE augmentation even for DFT
   NKREDX  =     1    reduce k-point grid by
   NKREDY  =     1    reduce k-point grid by
   NKREDZ  =     1    reduce k-point grid by
   SHIFTRED=     F    shift reduced grid of Gamma
   HFKIDENT=     F    idential grid for each k-point
   ODDONLY =     F    use only odd q-grid points
   EVENONLY=     F    use only even q-grid points
   HFALPHA =   -1.0000 decay constant for conv. correction
   MCALPHA =    0.0000 extent of test-charge in conv. correction in multipole expansion
   AEXX    =    0.2500 exact exchange contribution
   HFSCREEN=    0.2000 screening length (either q_TF or 0.3 A-1)
   HFSCREENC=   0.2000 screening length for correlation (either q_TF or 0.3 A-1)
   HFRCUT  =    0.0000 spherical cutoff for potential kernel
   ALDAX   =    0.7500 LDA exchange part
   AGGAX   =    0.7500 GGA exchange part
   ALDAC   =    1.0000 LDA correlation
   AGGAC   =    1.0000 GGA correlation
   ENCUTFOCK=  -1.0 apply spherical cutoff to Coloumb kernel
   NBANDSGWLOW=     1    first orbital included in HF term
   NBLOCK_FOCK=    64    blocking factor in FOCK_ACC

 Linear response parameters
   LEPSILON=     F    determine dielectric tensor
   LRPA    =     F    only Hartree local field effects (RPA)
   LNABLA  =     F    use nabla operator in PAW spheres
   LVEL    =     F    velocity operator in full k-point grid
   CSHIFT  =0.0000    complex shift for real part using Kramers Kronig
   OMEGAMAX=  -1.0    maximum frequency
   DEG_THRESHOLD= 0.2000000E-02 threshold for treating states as degnerate
   RTIME   =   -0.100 relaxation time in fs
  (WPLASMAI=    0.000 imaginary part of plasma frequency in eV, 0.658/RTIME)
   DFIELD  = 0.0000000 0.0000000 0.0000000 field for delta impulse in time
 
  Optional k-point grid parameters
   LKPOINTS_OPT  =     F    use optional k-point grid
   KPOINTS_OPT_MODE=     1    mode for optional k-point grid
 
 Orbital magnetization related:
   ORBITALMAG=     F  switch on orbital magnetization
   LCHIMAG   =     F  perturbation theory with respect to B field
   DQ        =  0.001000  dq finite difference perturbation B field
   LLRAUG    =     F  two centre corrections for induced B field
   LBONE     =     F  B-component reconstruction in AE one-centre
   LVGVCALC  =     T  calculate vGv susceptibility
   LVGVAPPL  =     F  apply vGv susceptibility instead of pGv for G=0

 Random number generation:
   RANDOM_GENERATOR = DEFAULT
   PCG_SEED         = not used


--------------------------------------------------------------------------------------------------------


 Static calculation
 charge density and potential will be updated during run
 non-spin polarized calculation
 Variant of blocked Davidson
 Davidson routine will perform the subspace rotation
 perform sub-space diagonalisation
    after iterative eigenvector-optimisation
 Kerker-like  mixing scheme
 using additional bands           57
 reciprocal scheme for non local part
 use partial core corrections
 calculate Harris-corrections to forces 
   (improved forces if not selfconsistent)
 use gradient corrections 
 use of overlap-Matrix (Vanderbilt PP)
 Fermi weights with tetrahedron method with Bloechl corrections


--------------------------------------------------------------------------------------------------------


  energy-cutoff  :      680.00
  volume of cell :      660.95
      direct lattice vectors                 reciprocal lattice vectors
    11.384104201  0.000000000 -4.722727877     0.087761961  0.000000000 -0.000192409
    -0.000000000  3.782074475  0.000000000     0.000000000  0.264405158  0.000000000
     0.033625364  0.000000000 15.337269515     0.027024097 -0.000000000  0.065141406

  length of vectors
    12.324852416  3.782074475 15.337306375     0.087762172  0.264405158  0.070524497


 
 k-points in units of 2pi/SCALE and weight: pymatgen with grid density = 649 / numbe
   0.00000000  0.00000000  0.00000000       0.083
   0.04388098  0.00000000 -0.00009620       0.083
   0.00000000  0.04406753  0.00000000       0.167
   0.04388098  0.04406753 -0.00009620       0.167
   0.00000000  0.08813505  0.00000000       0.167
   0.04388098  0.08813505 -0.00009620       0.167
   0.00000000  0.13220258  0.00000000       0.083
   0.04388098  0.13220258 -0.00009620       0.083
 
 k-points in reciprocal lattice and weights: pymatgen with grid density = 649 / numbe
   0.00000000  0.00000000  0.00000000       0.083
   0.50000000 -0.00000000 -0.00000000       0.083
   0.00000000  0.16666667  0.00000000       0.167
   0.50000000  0.16666667 -0.00000000       0.167
   0.00000000  0.33333333  0.00000000       0.167
   0.50000000  0.33333333 -0.00000000       0.167
   0.00000000  0.50000000  0.00000000       0.083
   0.50000000  0.50000000 -0.00000000       0.083
 
 position of ions in fractional coordinates (direct lattice) 
   0.50000000  0.00000000  0.00000000
   0.86225486  0.50000000  0.57384019
   0.13774514  0.50000000  0.42615981
   0.82534688  0.50000000  0.83422099
   0.17465312  0.50000000  0.16577901
   0.50000000  0.50000000  0.50000000
   0.51971417  0.00000000  0.71424278
   0.48028583  0.00000000  0.28575722
   0.22295600  0.50000000  0.72770707
   0.77704400  0.50000000  0.27229293
   0.11756297  0.00000000  0.93033321
   0.88243703  0.00000000  0.06966679
   0.72909955  0.00000000  0.89710546
   0.27090045  0.00000000  0.10289454
   0.44217686  0.50000000  0.79014978
   0.55782314  0.50000000  0.20985022
   0.93377829  0.00000000  0.78136304
   0.06622171  0.00000000  0.21863696
   0.38111617  0.00000000  0.54199438
   0.61888383  0.00000000  0.45800562
   0.23415233  0.50000000  0.89383155
   0.76584767  0.50000000  0.10616845
   0.12394617  0.00000000  0.62719797
   0.87605383  0.00000000  0.37280203
   0.64326029  0.50000000  0.67864546
   0.35673971  0.50000000  0.32135454
   0.00000000  0.50000000  0.00000000
 
 position of ions in cartesian coordinates  (Angst):
   5.69205210  0.00000000 -2.36136394
   9.83529473  1.89103724  4.72894657
   1.58243483  1.89103724  5.88559507
   9.42388586  1.89103724  8.89678343
   1.99384370  1.89103724  1.71775821
   5.70886478  1.89103724  5.30727082
   5.94049689  0.00000000  8.50006541
   5.47723267  0.00000000  2.11447623
   2.56262377  1.89103724 10.10807900
   8.85510580  1.89103724  0.50646264
   1.36963194  0.00000000 13.71355321
  10.04809762  0.00000000 -3.09901157
   8.33031073  0.00000000 10.31580946
   3.08741884  0.00000000  0.29873218
   5.06035655  1.89103724 10.03045918
   6.35737302  1.89103724  0.58408246
  10.65650302  0.00000000  7.57399471
   0.76122655  0.00000000  3.04054693
   4.35689093  0.00000000  6.51280589
   7.06083864  0.00000000  4.10173574
   2.69566991  1.89103724 12.60309769
   8.72205966  1.89103724 -1.98855605
   1.43210589  0.00000000  9.03414028
   9.98562368  0.00000000  1.58040136
   7.34576189  1.89103724  7.37062507
   4.07196768  1.89103724  3.24391656
  -0.00000000  1.89103724  0.00000000
 


--------------------------------------------------------------------------------------------------------


 k-point   1 :   0.0000 0.0000 0.0000  plane waves:   26557
 k-point   2 :   0.5000-0.0000-0.0000  plane waves:   26560
 k-point   3 :   0.0000 0.1667 0.0000  plane waves:   26570
 k-point   4 :   0.5000 0.1667-0.0000  plane waves:   26592
 k-point   5 :   0.0000 0.3333 0.0000  plane waves:   26646
 k-point   6 :   0.5000 0.3333-0.0000  plane waves:   26674
 k-point   7 :   0.0000 0.5000 0.0000  plane waves:   26644
 k-point   8 :   0.5000 0.5000-0.0000  plane waves:   26652

 maximum and minimum number of plane-waves per node :      1424     1274

 maximum number of plane-waves:     26674
 maximum index in each direction: 
   IXMAX=   26   IYMAX=    8   IZMAX=   32
   IXMIN=  -26   IYMIN=   -8   IZMIN=  -32


 parallel 3D FFT for wavefunctions:
    minimum data exchange during FFTs selected (reduces bandwidth)
 parallel 3D FFT for charge:
    minimum data exchange during FFTs selected (reduces bandwidth)

 
 Radii for the augmentation spheres in the non-local exchange
 for species   1 augmentation radius   1.387 (default was   1.110)
       energy cutoff for augmentation   2720.0
 for species   2 augmentation radius   1.347 (default was   1.077)
       energy cutoff for augmentation   2720.0
 for species   3 augmentation radius   1.212 (default was   0.970)
       energy cutoff for augmentation   2720.0

 real space projection operators:
  total allocation   :      23751.93 KBytes
  max/ min on nodes  :       1233.95       1131.30

 Maximum index for augmentation-charges in exchange          571
  SETUP_FOCK is finished

 total amount of memory used by VASP MPI-rank0    52750. kBytes
=======================================================================

   base      :      30000. kBytes
   nonl-proj :       5575. kBytes
   fftplans  :       2844. kBytes
   grid      :       3384. kBytes
   one-center:         31. kBytes
   HF        :        129. kBytes
   nonlr-proj:       5353. kBytes
   wavefun   :       5434. kBytes
 
     INWAV:  cpu time      0.0000: real time      0.0002
 initial charge density was supplied:
 charge density of overlapping atoms calculated
 number of electron     234.0000000 magnetization 
 keeping initial charge density in first step


--------------------------------------------------------------------------------------------------------


 Maximum index for augmentation-charges          961 (set IRDMAX)


--------------------------------------------------------------------------------------------------------


 First call to EWALD:  gamma=   0.203
 Maximum number of real-space cells 2x 6x 2
 Maximum number of reciprocal cells 4x 1x 4

    FEWALD:  cpu time      0.0020: real time      0.0020


--------------------------------------- Ionic step        1  -------------------------------------------




--------------------------------------- Iteration      1(   1)  ---------------------------------------


    POTLOK:  cpu time      0.0522: real time      0.2108
    SETDIJ:  cpu time      0.1352: real time      0.1357
     EDDAV:  cpu time      2.1944: real time      4.3212
 BZINTS: Fermi energy:   25.675901;  234.000000 electrons
         Band energy: 0.147709E+04;  BLOECHL correction:   -0.079934
       DOS:  cpu time      0.0170: real time      0.0170
    --------------------------------------------
      LOOP:  cpu time      2.3988: real time      4.6847

 eigenvalue-minimisations  :  2796
 total energy-change (2. order) :-0.1036836E+05  (-0.1130717E+05)
 number of electron     234.0000000 magnetization 
 augmentation part      234.0000000 magnetization 

 Free energy of the ion-electron system (eV)
  ---------------------------------------------------
  alpha Z        PSCENC =       542.99063454
  Ewald energy   TEWEN  =    -13637.56410770
  -Hartree energ DENC   =     -6947.75434451
  -exchange      EXHF   =         0.00000000
  -V(xc)+E(xc)   XCENC  =       648.79098453
  PAW double counting   =     17206.08895115   -29956.29348446
  entropy T*S    EENTRO =         0.00000000
  eigenvalues    EBANDS =      1477.09099837
  atomic energy  EATOM  =     20298.28928143
  Solvation  Ediel_sol  =         0.00000000
  ---------------------------------------------------
  free energy    TOTEN  =    -10368.36108663 eV

  energy without entropy =   -10368.36108663  energy(sigma->0) =   -10368.36108663
  exchange ACFDT corr.  =         0.00000000  see jH, gK, PRB 81, 115126


--------------------------------------------------------------------------------------------------------




--------------------------------------- Iteration      1(   2)  ---------------------------------------


     EDDAV:  cpu time      1.6886: real time      1.6993
 BZINTS: Fermi energy:    9.780322;  234.000000 electrons
         Band energy:-0.100041E+04;  BLOECHL correction:   -0.089701
       DOS:  cpu time      0.0197: real time      0.0198
    --------------------------------------------
      LOOP:  cpu time      1.7083: real time      1.7190

 eigenvalue-minimisations  :  2784
 total energy-change (2. order) :-0.2477504E+04  (-0.2310195E+04)
 number of electron     234.0000000 magnetization 
 augmentation part      234.0000000 magnetization 

 Free energy of the ion-electron system (eV)
  ---------------------------------------------------
  alpha Z        PSCENC =       542.99063454
  Ewald energy   TEWEN  =    -13637.56410770
  -Hartree energ DENC   =     -6947.75434451
  -exchange      EXHF   =         0.00000000
  -V(xc)+E(xc)   XCENC  =       648.79098453
  PAW double counting   =     17206.08895115   -29956.29348446
  entropy T*S    EENTRO =         0.00000000
  eigenvalues    EBANDS =     -1000.41313913
  atomic energy  EATOM  =     20298.28928143
  Solvation  Ediel_sol  =         0.00000000
  ---------------------------------------------------
  free energy    TOTEN  =    -12845.86522414 eV

  energy without entropy =   -12845.86522414  energy(sigma->0) =   -12845.86522414
  exchange ACFDT corr.  =         0.00000000  see jH, gK, PRB 81, 115126


--------------------------------------------------------------------------------------------------------




--------------------------------------- Iteration      1(   3)  ---------------------------------------


     EDDAV:  cpu time      1.8412: real time      1.8926
 BZINTS: Fermi energy:    3.385047;  234.000000 electrons
         Band energy:-0.158926E+04;  BLOECHL correction:    0.000000
       DOS:  cpu time      0.0110: real time      0.0110
    --------------------------------------------
      LOOP:  cpu time      1.8522: real time      1.9036

 eigenvalue-minimisations  :  3162
 total energy-change (2. order) :-0.5888480E+03  (-0.5544825E+03)
 number of electron     234.0000000 magnetization 
 augmentation part      234.0000000 magnetization 

 Free energy of the ion-electron system (eV)
  ---------------------------------------------------
  alpha Z        PSCENC =       542.99063454
  Ewald energy   TEWEN  =    -13637.56410770
  -Hartree energ DENC   =     -6947.75434451
  -exchange      EXHF   =         0.00000000
  -V(xc)+E(xc)   XCENC  =       648.79098453
  PAW double counting   =     17206.08895115   -29956.29348446
  entropy T*S    EENTRO =         0.00000000
  eigenvalues    EBANDS =     -1589.26112162
  atomic energy  EATOM  =     20298.28928143
  Solvation  Ediel_sol  =         0.00000000
  ---------------------------------------------------
  free energy    TOTEN  =    -13434.71320663 eV

  energy without entropy =   -13434.71320663  energy(sigma->0) =   -13434.71320663
  exchange ACFDT corr.  =         0.00000000  see jH, gK, PRB 81, 115126


--------------------------------------------------------------------------------------------------------




--------------------------------------- Iteration      1(   4)  ---------------------------------------


     EDDAV:  cpu time      2.1761: real time      2.2246
 BZINTS: Fermi energy:    2.264779;  234.000000 electrons
         Band energy:-0.165066E+04;  BLOECHL correction:    0.000000
       DOS:  cpu time      0.0103: real time      0.0104
    --------------------------------------------
      LOOP:  cpu time      2.1865: real time      2.2349

 eigenvalue-minimisations  :  3720
 total energy-change (2. order) :-0.6140281E+02  (-0.6024538E+02)
 number of electron     234.0000000 magnetization 
 augmentation part      234.0000000 magnetization 

 Free energy of the ion-electron system (eV)
  ---------------------------------------------------
  alpha Z        PSCENC =       542.99063454
  Ewald energy   TEWEN  =    -13637.56410770
  -Hartree energ DENC   =     -6947.75434451
  -exchange      EXHF   =         0.00000000
  -V(xc)+E(xc)   XCENC  =       648.79098453
  PAW double counting   =     17206.08895115   -29956.29348446
  entropy T*S    EENTRO =         0.00000000
  eigenvalues    EBANDS =     -1650.66392994
  atomic energy  EATOM  =     20298.28928143
  Solvation  Ediel_sol  =         0.00000000
  ---------------------------------------------------
  free energy    TOTEN  =    -13496.11601495 eV

  energy without entropy =   -13496.11601495  energy(sigma->0) =   -13496.11601495
  exchange ACFDT corr.  =         0.00000000  see jH, gK, PRB 81, 115126


--------------------------------------------------------------------------------------------------------




--------------------------------------- Iteration      1(   5)  ---------------------------------------


    POTLOK:  cpu time      0.0660: real time      0.0876
    SETDIJ:  cpu time      0.3543: real time      0.3553
     EDDAV:  cpu time    583.4158: real time    585.0062
 BZINTS: Fermi energy:    2.089232;  234.000000 electrons
         Band energy:-0.158716E+04;  BLOECHL correction:    0.000000
       DOS:  cpu time      0.0144: real time      0.0145
    CHARGE:  cpu time      0.1007: real time      0.1525
    MIXING:  cpu time      0.0006: real time      0.0007
    --------------------------------------------
      LOOP:  cpu time    583.9519: real time    585.6169

 eigenvalue-minimisations  :  4008
 total energy-change (2. order) : 0.1335870E+05  (-0.9846924E+01)
 number of electron     234.0000009 magnetization 
 augmentation part       51.6158611 magnetization 

 Free energy of the ion-electron system (eV)
  ---------------------------------------------------
  alpha Z        PSCENC =       542.99063454
  Ewald energy   TEWEN  =    -13637.56410770
  -Hartree energ DENC   =     -6947.75434451
  -exchange      EXHF   =       528.36477559
  -V(xc)+E(xc)   XCENC  =       491.81671951
  PAW double counting   =     17354.30729010   -17180.70683240
  entropy T*S    EENTRO =         0.00000000
  eigenvalues    EBANDS =     -1587.16242022
  atomic energy  EATOM  =     20298.28928143
  Solvation  Ediel_sol  =         0.00000000
  ---------------------------------------------------
  free energy    TOTEN  =      -137.41900366 eV

  energy without entropy =     -137.41900366  energy(sigma->0) =     -137.41900366
  exchange ACFDT corr.  =         0.00000000  see jH, gK, PRB 81, 115126


--------------------------------------------------------------------------------------------------------




--------------------------------------- Iteration      1(   6)  ---------------------------------------


    POTLOK:  cpu time      0.0713: real time      0.0880
    SETDIJ:  cpu time      0.3570: real time      0.3579
     EDDAV:  cpu time    585.3226: real time    586.8098
 BZINTS: Fermi energy:    2.808208;  234.000000 electrons
         Band energy:-0.159622E+04;  BLOECHL correction:    0.000000
       DOS:  cpu time      0.0108: real time      0.0109
    CHARGE:  cpu time      0.1066: real time      0.1069
    MIXING:  cpu time      0.0003: real time      0.0003
    --------------------------------------------
      LOOP:  cpu time    585.8686: real time    587.3737

 eigenvalue-minimisations  :  4500
 total energy-change (2. order) : 0.7159132E+01  (-0.1181456E+01)
 number of electron     234.0000015 magnetization 
 augmentation part       51.9361111 magnetization 

 Free energy of the ion-electron system (eV)
  ---------------------------------------------------
  alpha Z        PSCENC =       542.99063454
  Ewald energy   TEWEN  =    -13637.56410770
  -Hartree energ DENC   =     -6941.81785776
  -exchange      EXHF   =       520.97877701
  -V(xc)+E(xc)   XCENC  =       494.80611915
  PAW double counting   =     22997.66469249   -22809.38463271
  entropy T*S    EENTRO =         0.00000000
  eigenvalues    EBANDS =     -1596.22277762
  atomic energy  EATOM  =     20298.28928143
  Solvation  Ediel_sol  =         0.00000000
  ---------------------------------------------------
  free energy    TOTEN  =      -130.25987117 eV

  energy without entropy =     -130.25987117  energy(sigma->0) =     -130.25987117
  exchange ACFDT corr.  =         0.00000000  see jH, gK, PRB 81, 115126


--------------------------------------------------------------------------------------------------------




--------------------------------------- Iteration      1(   7)  ---------------------------------------


    POTLOK:  cpu time      0.0756: real time      0.0911
    SETDIJ:  cpu time      0.3561: real time      0.3571
     EDDAV:  cpu time    584.7194: real time    586.2020
 BZINTS: Fermi energy:    3.139630;  234.000000 electrons
         Band energy:-0.160007E+04;  BLOECHL correction:    0.000000
       DOS:  cpu time      0.0108: real time      0.0108
    CHARGE:  cpu time      0.1114: real time      0.1117
    MIXING:  cpu time      0.0005: real time      0.0005
    --------------------------------------------
      LOOP:  cpu time    585.2737: real time    586.7732

 eigenvalue-minimisations  :  4176
 total energy-change (2. order) :-0.1011801E+00  (-0.7458070E+00)
 number of electron     234.0000018 magnetization 
 augmentation part       52.2312194 magnetization 

 Free energy of the ion-electron system (eV)
  ---------------------------------------------------
  alpha Z        PSCENC =       542.99063454
  Ewald energy   TEWEN  =    -13637.56410770
  -Hartree energ DENC   =     -6938.23130348
  -exchange      EXHF   =       516.12786388
  -V(xc)+E(xc)   XCENC  =       495.95005443
  PAW double counting   =     28192.90155875   -28000.75813275
  entropy T*S    EENTRO =         0.00000000
  eigenvalues    EBANDS =     -1600.06690038
  atomic energy  EATOM  =     20298.28928143
  Solvation  Ediel_sol  =         0.00000000
  ---------------------------------------------------
  free energy    TOTEN  =      -130.36105127 eV

  energy without entropy =     -130.36105127  energy(sigma->0) =     -130.36105127
  exchange ACFDT corr.  =         0.00000000  see jH, gK, PRB 81, 115126


--------------------------------------------------------------------------------------------------------




--------------------------------------- Iteration      1(   8)  ---------------------------------------


    POTLOK:  cpu time      0.0601: real time      0.0728
    SETDIJ:  cpu time      0.3537: real time      0.3545
     EDDAV:  cpu time    584.6657: real time    586.1458
 BZINTS: Fermi energy:    3.202377;  234.000000 electrons
         Band energy:-0.159723E+04;  BLOECHL correction:    0.000000
       DOS:  cpu time      0.0101: real time      0.0102
    CHARGE:  cpu time      0.0965: real time      0.0968
    MIXING:  cpu time      0.0004: real time      0.0004
    --------------------------------------------
      LOOP:  cpu time    585.1866: real time    586.6805

 eigenvalue-minimisations  :  3876
 total energy-change (2. order) :-0.1423489E+00  (-0.8610786E-01)
 number of electron     234.0000021 magnetization 
 augmentation part       52.2131841 magnetization 

 Free energy of the ion-electron system (eV)
  ---------------------------------------------------
  alpha Z        PSCENC =       542.99063454
  Ewald energy   TEWEN  =    -13637.56410770
  -Hartree energ DENC   =     -6937.48412992
  -exchange      EXHF   =       513.18955151
  -V(xc)+E(xc)   XCENC  =       496.17817947
  PAW double counting   =     32190.55829878   -31999.43432931
  entropy T*S    EENTRO =         0.00000000
  eigenvalues    EBANDS =     -1597.22677900
  atomic energy  EATOM  =     20298.28928143
  Solvation  Ediel_sol  =         0.00000000
  ---------------------------------------------------
  free energy    TOTEN  =      -130.50340019 eV

  energy without entropy =     -130.50340019  energy(sigma->0) =     -130.50340019
  exchange ACFDT corr.  =         0.00000000  see jH, gK, PRB 81, 115126


--------------------------------------------------------------------------------------------------------




--------------------------------------- Iteration      1(   9)  ---------------------------------------


    POTLOK:  cpu time      0.0559: real time      0.0730
    SETDIJ:  cpu time      0.3535: real time      0.3543
     EDDAV:  cpu time    583.6556: real time    585.1345
 BZINTS: Fermi energy:    3.181583;  234.000000 electrons
         Band energy:-0.159666E+04;  BLOECHL correction:    0.000000
       DOS:  cpu time      0.0103: real time      0.0105
    CHARGE:  cpu time      0.1131: real time      0.1134
    MIXING:  cpu time      0.0006: real time      0.0006
    --------------------------------------------
      LOOP:  cpu time    584.1890: real time    585.6862

 eigenvalue-minimisations  :  4236
 total energy-change (2. order) : 0.6047980E-01  (-0.8438436E-02)
 number of electron     234.0000022 magnetization 
 augmentation part       52.1631356 magnetization 

 Free energy of the ion-electron system (eV)
  ---------------------------------------------------
  alpha Z        PSCENC =       542.99063454
  Ewald energy   TEWEN  =    -13637.56410770
  -Hartree energ DENC   =     -6936.19174355
  -exchange      EXHF   =       512.59272363
  -V(xc)+E(xc)   XCENC  =       496.21366902
  PAW double counting   =     34624.57260543   -34434.68202935
  entropy T*S    EENTRO =         0.00000000
  eigenvalues    EBANDS =     -1596.66395385
  atomic energy  EATOM  =     20298.28928143
  Solvation  Ediel_sol  =         0.00000000
  ---------------------------------------------------
  free energy    TOTEN  =      -130.44292040 eV

  energy without entropy =     -130.44292040  energy(sigma->0) =     -130.44292040
  exchange ACFDT corr.  =         0.00000000  see jH, gK, PRB 81, 115126


--------------------------------------------------------------------------------------------------------




--------------------------------------- Iteration      1(  10)  ---------------------------------------


    POTLOK:  cpu time      0.0587: real time      0.0775
    SETDIJ:  cpu time      0.3543: real time      0.3552
     EDDAV:  cpu time    584.2520: real time    585.7242
 BZINTS: Fermi energy:    3.171681;  234.000000 electrons
         Band energy:-0.159767E+04;  BLOECHL correction:    0.000000
       DOS:  cpu time      0.0101: real time      0.0102
    CHARGE:  cpu time      0.0968: real time      0.0972
    MIXING:  cpu time      0.0004: real time      0.0004
    --------------------------------------------
      LOOP:  cpu time    584.7722: real time    586.2647

 eigenvalue-minimisations  :  3792
 total energy-change (2. order) : 0.1415905E-01  (-0.3303713E-02)
 number of electron     234.0000023 magnetization 
 augmentation part       52.1401997 magnetization 

 Free energy of the ion-electron system (eV)
  ---------------------------------------------------
  alpha Z        PSCENC =       542.99063454
  Ewald energy   TEWEN  =    -13637.56410770
  -Hartree energ DENC   =     -6934.76616687
  -exchange      EXHF   =       512.71829437
  -V(xc)+E(xc)   XCENC  =       496.25762707
  PAW double counting   =     36002.49469781   -35813.18239534
  entropy T*S    EENTRO =         0.00000000
  eigenvalues    EBANDS =     -1597.66662668
  atomic energy  EATOM  =     20298.28928143
  Solvation  Ediel_sol  =         0.00000000
  ---------------------------------------------------
  free energy    TOTEN  =      -130.42876135 eV

  energy without entropy =     -130.42876135  energy(sigma->0) =     -130.42876135
  exchange ACFDT corr.  =         0.00000000  see jH, gK, PRB 81, 115126


--------------------------------------------------------------------------------------------------------




--------------------------------------- Iteration      1(  11)  ---------------------------------------


    POTLOK:  cpu time      0.0567: real time      0.0718
    SETDIJ:  cpu time      0.3547: real time      0.3556
     EDDAV:  cpu time    584.3374: real time    588.9265
 BZINTS: Fermi energy:    3.193462;  234.000000 electrons
         Band energy:-0.159830E+04;  BLOECHL correction:    0.000000
       DOS:  cpu time      0.0128: real time      0.0425
    CHARGE:  cpu time      0.1027: real time      0.2033
    MIXING:  cpu time      0.0059: real time      0.0059
    --------------------------------------------
      LOOP:  cpu time    584.8707: real time    589.6064

 eigenvalue-minimisations  :  4056
 total energy-change (2. order) : 0.3492876E-02  (-0.5346732E-03)
 number of electron     234.0000023 magnetization 
 augmentation part       52.1365140 magnetization 

 Free energy of the ion-electron system (eV)
  ---------------------------------------------------
  alpha Z        PSCENC =       542.99063454
  Ewald energy   TEWEN  =    -13637.56410770
  -Hartree energ DENC   =     -6934.13909644
  -exchange      EXHF   =       512.88916132
  -V(xc)+E(xc)   XCENC  =       496.32003791
  PAW double counting   =     36775.73656846   -36586.64975660
  entropy T*S    EENTRO =         0.00000000
  eigenvalues    EBANDS =     -1598.29799139
  atomic energy  EATOM  =     20298.28928143
  Solvation  Ediel_sol  =         0.00000000
  ---------------------------------------------------
  free energy    TOTEN  =      -130.42526847 eV

  energy without entropy =     -130.42526847  energy(sigma->0) =     -130.42526847
  exchange ACFDT corr.  =         0.00000000  see jH, gK, PRB 81, 115126


--------------------------------------------------------------------------------------------------------




--------------------------------------- Iteration      1(  12)  ---------------------------------------


    POTLOK:  cpu time      0.0682: real time      0.1508
    SETDIJ:  cpu time      0.3610: real time      0.3625
     EDDAV:  cpu time    584.7473: real time    586.2224
 BZINTS: Fermi energy:    3.196346;  234.000000 electrons
         Band energy:-0.159839E+04;  BLOECHL correction:    0.000000
       DOS:  cpu time      0.0106: real time      0.0108
    CHARGE:  cpu time      0.1147: real time      0.1150
    MIXING:  cpu time      0.0007: real time      0.0007
    --------------------------------------------
      LOOP:  cpu time    585.3020: real time    586.8613

 eigenvalue-minimisations  :  3996
 total energy-change (2. order) : 0.1293078E-02  (-0.1731385E-03)
 number of electron     234.0000023 magnetization 
 augmentation part       52.1352628 magnetization 

 Free energy of the ion-electron system (eV)
  ---------------------------------------------------
  alpha Z        PSCENC =       542.99063454
  Ewald energy   TEWEN  =    -13637.56410770
  -Hartree energ DENC   =     -6934.03756627
  -exchange      EXHF   =       512.94397791
  -V(xc)+E(xc)   XCENC  =       496.37184904
  PAW double counting   =     37235.29256955   -37046.31661490
  entropy T*S    EENTRO =         0.00000000
  eigenvalues    EBANDS =     -1598.39399900
  atomic energy  EATOM  =     20298.28928143
  Solvation  Ediel_sol  =         0.00000000
  ---------------------------------------------------
  free energy    TOTEN  =      -130.42397539 eV

  energy without entropy =     -130.42397539  energy(sigma->0) =     -130.42397539
  exchange ACFDT corr.  =         0.00000000  see jH, gK, PRB 81, 115126


--------------------------------------------------------------------------------------------------------




--------------------------------------- Iteration      1(  13)  ---------------------------------------


    POTLOK:  cpu time      0.0683: real time      0.0686
    SETDIJ:  cpu time      0.4030: real time      0.4039
     EDDAV:  cpu time    584.3164: real time    585.7959
 BZINTS: Fermi energy:    3.202544;  234.000000 electrons
         Band energy:-0.159821E+04;  BLOECHL correction:    0.000000
       DOS:  cpu time      0.0172: real time      0.0172
    CHARGE:  cpu time      0.1078: real time      0.1080
    MIXING:  cpu time      0.0016: real time      0.0016
    --------------------------------------------
      LOOP:  cpu time    584.9142: real time    586.3952

 eigenvalue-minimisations  :  3924
 total energy-change (2. order) : 0.2919464E-03  (-0.8354294E-04)
 number of electron     234.0000023 magnetization 
 augmentation part       52.1345959 magnetization 

 Free energy of the ion-electron system (eV)
  ---------------------------------------------------
  alpha Z        PSCENC =       542.99063454
  Ewald energy   TEWEN  =    -13637.56410770
  -Hartree energ DENC   =     -6934.17578931
  -exchange      EXHF   =       512.94854249
  -V(xc)+E(xc)   XCENC  =       496.40711075
  PAW double counting   =     37509.59280033   -37320.70022515
  entropy T*S    EENTRO =         0.00000000
  eigenvalues    EBANDS =     -1598.21193084
  atomic energy  EATOM  =     20298.28928143
  Solvation  Ediel_sol  =         0.00000000
  ---------------------------------------------------
  free energy    TOTEN  =      -130.42368345 eV

  energy without entropy =     -130.42368345  energy(sigma->0) =     -130.42368345
  exchange ACFDT corr.  =         0.00000000  see jH, gK, PRB 81, 115126


--------------------------------------------------------------------------------------------------------




--------------------------------------- Iteration      1(  14)  ---------------------------------------


    POTLOK:  cpu time      0.0935: real time      0.0939
    SETDIJ:  cpu time      0.3594: real time      0.3604
     EDDAV:  cpu time    583.6870: real time    586.0838
 BZINTS: Fermi energy:    3.211867;  234.000000 electrons
         Band energy:-0.159799E+04;  BLOECHL correction:    0.000000
       DOS:  cpu time      0.0134: real time      0.0134
    CHARGE:  cpu time      0.1071: real time      0.1077
    MIXING:  cpu time      0.0013: real time      0.0013
    --------------------------------------------
      LOOP:  cpu time    584.2623: real time    586.6613

 eigenvalue-minimisations  :  3804
 total energy-change (2. order) : 0.3062843E-04  (-0.3074838E-04)
 number of electron     234.0000023 magnetization 
 augmentation part       52.1340953 magnetization 

 Free energy of the ion-electron system (eV)
  ---------------------------------------------------
  alpha Z        PSCENC =       542.99063454
  Ewald energy   TEWEN  =    -13637.56410770
  -Hartree energ DENC   =     -6934.34778341
  -exchange      EXHF   =       512.94030997
  -V(xc)+E(xc)   XCENC  =       496.42855569
  PAW double counting   =     37672.69471542   -37483.86610447
  entropy T*S    EENTRO =         0.00000000
  eigenvalues    EBANDS =     -1597.98915429
  atomic energy  EATOM  =     20298.28928143
  Solvation  Ediel_sol  =         0.00000000
  ---------------------------------------------------
  free energy    TOTEN  =      -130.42365282 eV

  energy without entropy =     -130.42365282  energy(sigma->0) =     -130.42365282
  exchange ACFDT corr.  =         0.00000000  see jH, gK, PRB 81, 115126


--------------------------------------------------------------------------------------------------------




--------------------------------------- Iteration      1(  15)  ---------------------------------------


    POTLOK:  cpu time      0.0961: real time      0.0984
    SETDIJ:  cpu time      0.3623: real time      0.3647
     EDDAV:  cpu time    582.2588: real time    583.7343
 BZINTS: Fermi energy:    3.221096;  234.000000 electrons
         Band energy:-0.159782E+04;  BLOECHL correction:    0.000000
       DOS:  cpu time      0.0102: real time      0.0105
    CHARGE:  cpu time      0.1098: real time      0.1101
    MIXING:  cpu time      0.0005: real time      0.0005
    --------------------------------------------
      LOOP:  cpu time    582.8372: real time    584.3175

 eigenvalue-minimisations  :  3804
 total energy-change (2. order) :-0.2130625E-04  (-0.1467698E-04)
 number of electron     234.0000024 magnetization 
 augmentation part       52.1335696 magnetization 

 Free energy of the ion-electron system (eV)
  ---------------------------------------------------
  alpha Z        PSCENC =       542.99063454
  Ewald energy   TEWEN  =    -13637.56410770
  -Hartree energ DENC   =     -6934.48428880
  -exchange      EXHF   =       512.93411703
  -V(xc)+E(xc)   XCENC  =       496.44138797
  PAW double counting   =     37769.96606688   -37581.18065622
  entropy T*S    EENTRO =         0.00000000
  eigenvalues    EBANDS =     -1597.81610926
  atomic energy  EATOM  =     20298.28928143
  Solvation  Ediel_sol  =         0.00000000
  ---------------------------------------------------
  free energy    TOTEN  =      -130.42367412 eV

  energy without entropy =     -130.42367412  energy(sigma->0) =     -130.42367412
  exchange ACFDT corr.  =         0.00000000  see jH, gK, PRB 81, 115126


--------------------------------------------------------------------------------------------------------




--------------------------------------- Iteration      1(  16)  ---------------------------------------


    POTLOK:  cpu time      0.0590: real time      0.0598
    SETDIJ:  cpu time      0.3566: real time      0.3576
     EDDAV:  cpu time    586.5831: real time    588.0696
 BZINTS: Fermi energy:    3.215159;  234.000000 electrons
         Band energy:-0.159770E+04;  BLOECHL correction:    0.000000
       DOS:  cpu time      0.0169: real time      0.0171
    CHARGE:  cpu time      0.1915: real time      0.1924
    MIXING:  cpu time      0.0261: real time      0.0261
    --------------------------------------------
      LOOP:  cpu time    587.2340: real time    588.7235

 eigenvalue-minimisations  :  3420
 total energy-change (2. order) :-0.2405982E-04  (-0.6776053E-05)
 number of electron     234.0000024 magnetization 
 augmentation part       52.1332903 magnetization 

 Free energy of the ion-electron system (eV)
  ---------------------------------------------------
  alpha Z        PSCENC =       542.99063454
  Ewald energy   TEWEN  =    -13637.56410770
  -Hartree energ DENC   =     -6934.58315351
  -exchange      EXHF   =       512.93116724
  -V(xc)+E(xc)   XCENC  =       496.44918992
  PAW double counting   =     37827.55205996   -37638.79290370
  entropy T*S    EENTRO =         0.00000000
  eigenvalues    EBANDS =     -1597.69586637
  atomic energy  EATOM  =     20298.28928143
  Solvation  Ediel_sol  =         0.00000000
  ---------------------------------------------------
  free energy    TOTEN  =      -130.42369818 eV

  energy without entropy =     -130.42369818  energy(sigma->0) =     -130.42369818
  exchange ACFDT corr.  =         0.00000000  see jH, gK, PRB 81, 115126


--------------------------------------------------------------------------------------------------------




--------------------------------------- Iteration      1(  17)  ---------------------------------------


    POTLOK:  cpu time      0.1615: real time      0.1644
    SETDIJ:  cpu time      0.3625: real time      0.3649
     EDDAV:  cpu time    583.8317: real time    585.3091
 BZINTS: Fermi energy:    3.208716;  234.000000 electrons
         Band energy:-0.159761E+04;  BLOECHL correction:    0.000000
       DOS:  cpu time      0.0103: real time      0.0105
    CHARGE:  cpu time      0.0941: real time      0.0943
    MIXING:  cpu time      0.0003: real time      0.0003
    --------------------------------------------
      LOOP:  cpu time    584.4596: real time    585.9426

 eigenvalue-minimisations  :  3132
 total energy-change (2. order) :-0.1570517E-04  (-0.3100517E-05)
 number of electron     234.0000024 magnetization 
 augmentation part       52.1332587 magnetization 

 Free energy of the ion-electron system (eV)
  ---------------------------------------------------
  alpha Z        PSCENC =       542.99063454
  Ewald energy   TEWEN  =    -13637.56410770
  -Hartree energ DENC   =     -6934.65653214
  -exchange      EXHF   =       512.92989499
  -V(xc)+E(xc)   XCENC  =       496.45415548
  PAW double counting   =     37861.27496624   -37672.53077876
  entropy T*S    EENTRO =         0.00000000
  eigenvalues    EBANDS =     -1597.61122799
  atomic energy  EATOM  =     20298.28928143
  Solvation  Ediel_sol  =         0.00000000
  ---------------------------------------------------
  free energy    TOTEN  =      -130.42371389 eV

  energy without entropy =     -130.42371389  energy(sigma->0) =     -130.42371389
  exchange ACFDT corr.  =         0.00000000  see jH, gK, PRB 81, 115126


--------------------------------------------------------------------------------------------------------




--------------------------------------- Iteration      1(  18)  ---------------------------------------


    POTLOK:  cpu time      0.0594: real time      0.0602
    SETDIJ:  cpu time      0.3556: real time      0.3565
     EDDAV:  cpu time    582.6331: real time    587.4856
 BZINTS: Fermi energy:    3.225690;  234.000000 electrons
         Band energy:-0.159755E+04;  BLOECHL correction:    0.000000
       DOS:  cpu time      0.0130: real time      0.0214
    --------------------------------------------
      LOOP:  cpu time    583.0612: real time    587.9237

 eigenvalue-minimisations  :  2616
 total energy-change (2. order) :-0.9110136E-05  (-0.1528652E-05)
 number of electron     234.0000024 magnetization 
 augmentation part       52.1332587 magnetization 

 Free energy of the ion-electron system (eV)
  ---------------------------------------------------
  alpha Z        PSCENC =       542.99063454
  Ewald energy   TEWEN  =    -13637.56410770
  -Hartree energ DENC   =     -6934.71292127
  -exchange      EXHF   =       512.92928703
  -V(xc)+E(xc)   XCENC  =       496.45741602
  PAW double counting   =     37880.82338377   -37692.08745926
  entropy T*S    EENTRO =         0.00000000
  eigenvalues    EBANDS =     -1597.54923756
  atomic energy  EATOM  =     20298.28928143
  Solvation  Ediel_sol  =         0.00000000
  ---------------------------------------------------
  free energy    TOTEN  =      -130.42372300 eV

  energy without entropy =     -130.42372300  energy(sigma->0) =     -130.42372300
  exchange ACFDT corr.  =         0.00000000  see jH, gK, PRB 81, 115126


--------------------------------------------------------------------------------------------------------




 average (electrostatic) potential at core
  the test charge radii are     1.1097  1.0774  0.9698
  (the norm of the test charge is              1.0000)
       1 -30.2273       2 -30.1779       3 -30.1780       4 -90.3301       5 -90.3301
       6 -90.3442       7 -90.4972       8 -90.4972       9 -90.5447      10 -90.5447
      11 -90.5909      12 -90.5909      13 -82.7450      14 -82.7450      15 -83.0737
      16 -83.0737      17 -82.7970      18 -82.7970      19 -82.6688      20 -82.6688
      21 -83.0706      22 -83.0706      23 -82.8511      24 -82.8512      25 -83.0166
      26 -83.0167      27 -83.1751
 
 
 
 E-fermi :   3.2257     XC(G=0):  -7.6862     alpha+bet :-10.5998

 Fermi energy:         3.2256899093

 k-point     1 :       0.0000    0.0000    0.0000
  band No.  band energies     occupation 
      1     -24.7497      2.00000
      2     -24.7090      2.00000
      3     -24.7069      2.00000
      4     -12.6661      2.00000
      5     -12.5760      2.00000
      6     -12.5371      2.00000
      7     -12.5081      2.00000
      8     -12.4382      2.00000
      9     -12.4049      2.00000
     10     -12.3625      2.00000
     11     -12.3346      2.00000
     12     -12.2756      2.00000
     13     -12.2602      2.00000
     14     -12.2551      2.00000
     15     -12.2548      2.00000
     16     -12.2120      2.00000
     17     -12.2116      2.00000
     18     -12.1955      2.00000
     19     -12.1944      2.00000
     20     -12.1644      2.00000
     21     -12.1632      2.00000
     22     -12.1567      2.00000
     23     -12.1408      2.00000
     24     -12.1351      2.00000
     25     -12.1274      2.00000
     26     -12.1211      2.00000
     27     -12.0965      2.00000
     28     -12.0909      2.00000
     29     -12.0889      2.00000
     30     -12.0820      2.00000
     31     -12.0738      2.00000
     32     -12.0735      2.00000
     33     -12.0516      2.00000
[...]
   40.918525    0.848546    0.847511    0.848272    0.000000   -0.000000   -0.001477
   40.944407    0.848757    0.847722    0.848484    0.000000   -0.000000   -0.001475
   40.970288    0.848967    0.847934    0.848694    0.000000   -0.000000   -0.001473
   40.996170    0.849177    0.848145    0.848905    0.000000   -0.000000   -0.001471
   41.022051    0.849387    0.848355    0.849115    0.000000   -0.000000   -0.001470
   41.047932    0.849596    0.848565    0.849324    0.000000   -0.000000   -0.001468
   41.073814    0.849804    0.848775    0.849533    0.000000   -0.000000   -0.001466
   41.099695    0.850012    0.848984    0.849742    0.000000   -0.000000   -0.001465
   41.125577    0.850220    0.849193    0.849950    0.000000   -0.000000   -0.001463
   41.151458    0.850427    0.849401    0.850157    0.000000   -0.000000   -0.001461
   41.177340    0.850634    0.849609    0.850364    0.000000   -0.000000   -0.001460
   41.203221    0.850840    0.849816    0.850571    0.000000   -0.000000   -0.001458
   41.229102    0.851046    0.850023    0.850777    0.000000   -0.000000   -0.001456
   41.254984    0.851251    0.850229    0.850983    0.000000   -0.000000   -0.001455
   41.280865    0.851456    0.850435    0.851188    0.000000   -0.000000   -0.001453
   41.306747    0.851661    0.850641    0.851393    0.000000   -0.000000   -0.001451
   41.332628    0.851865    0.850846    0.851598    0.000000   -0.000000   -0.001450
   41.358509    0.852068    0.851050    0.851802    0.000000   -0.000000   -0.001448
   41.384391    0.852271    0.851254    0.852005    0.000000   -0.000000   -0.001446
   41.410272    0.852474    0.851458    0.852209    0.000000   -0.000000   -0.001445
   41.436154    0.852676    0.851662    0.852411    0.000000   -0.000000   -0.001443
   41.462035    0.852878    0.851864    0.852614    0.000000   -0.000000   -0.001441
   41.487917    0.853080    0.852067    0.852815    0.000000   -0.000000   -0.001440
   41.513798    0.853280    0.852269    0.853017    0.000000   -0.000000   -0.001438
   41.539679    0.853481    0.852470    0.853218    0.000000   -0.000000   -0.001437
   41.565561    0.853681    0.852672    0.853418    0.000000   -0.000000   -0.001435
   41.591442    0.853881    0.852872    0.853619    0.000000   -0.000000   -0.001433
   41.617324    0.854080    0.853072    0.853818    0.000000   -0.000000   -0.001432
   41.643205    0.854279    0.853272    0.854017    0.000000   -0.000000   -0.001430
   41.669087    0.854477    0.853472    0.854216    0.000000   -0.000000   -0.001428
   41.694968    0.854675    0.853671    0.854415    0.000000   -0.000000   -0.001427
   41.720849    0.854873    0.853869    0.854613    0.000000   -0.000000   -0.001425
   41.746731    0.855070    0.854067    0.854810    0.000000   -0.000000   -0.001424
   41.772612    0.855267    0.854265    0.855007    0.000000   -0.000000   -0.001422
   41.798494    0.855463    0.854463    0.855204    0.000000   -0.000000   -0.001420
   41.824375    0.855659    0.854659    0.855400    0.000000   -0.000000   -0.001419
   41.850256    0.855854    0.854856    0.855596    0.000000   -0.000000   -0.001417
   41.876138    0.856049    0.855052    0.855792    0.000000   -0.000000   -0.001415
   41.902019    0.856244    0.855248    0.855987    0.000000   -0.000000   -0.001414
   41.927901    0.856438    0.855443    0.856181    0.000000   -0.000000   -0.001412
   41.953782    0.856632    0.855638    0.856376    0.000000   -0.000000   -0.001411
   41.979664    0.856825    0.855832    0.856569    0.000000   -0.000000   -0.001409
   42.005545    0.857018    0.856026    0.856763    0.000000   -0.000000   -0.001407
   42.031426    0.857211    0.856220    0.856956    0.000000   -0.000000   -0.001406
   42.057308    0.857403    0.856413    0.857148    0.000000   -0.000000   -0.001404
   42.083189    0.857595    0.856606    0.857341    0.000000   -0.000000   -0.001403
   42.109071    0.857786    0.856798    0.857532    0.000000   -0.000000   -0.001401
   42.134952    0.857977    0.856990    0.857724    0.000000   -0.000000   -0.001400
   42.160833    0.858168    0.857181    0.857915    0.000000   -0.000000   -0.001398
   42.186715    0.858358    0.857373    0.858105    0.000000   -0.000000   -0.001396
   42.212596    0.858548    0.857563    0.858295    0.000000   -0.000000   -0.001395
   42.238478    0.858737    0.857754    0.858485    0.000000   -0.000000   -0.001393
   42.264359    0.858926    0.857944    0.858675    0.000000   -0.000000   -0.001392
   42.290241    0.859114    0.858133    0.858864    0.000000   -0.000000   -0.001390
   42.316122    0.859303    0.858322    0.859052    0.000000   -0.000000   -0.001389
   42.342003    0.859490    0.858511    0.859240    0.000000   -0.000000   -0.001387
   42.367885    0.859678    0.858700    0.859428    0.000000   -0.000000   -0.001385
   42.393766    0.859865    0.858888    0.859615    0.000000   -0.000000   -0.001384
   42.419648    0.860051    0.859075    0.859802    0.000000   -0.000000   -0.001382
   42.445529    0.860238    0.859262    0.859989    0.000000   -0.000000   -0.001381
   42.471411    0.860423    0.859449    0.860175    0.000000   -0.000000   -0.001379
   42.497292    0.860609    0.859636    0.860361    0.000000   -0.000000   -0.001378
   42.523173    0.860794    0.859822    0.860547    0.000000   -0.000000   -0.001376
   42.549055    0.860979    0.860007    0.860732    0.000000   -0.000000   -0.001375
   42.574936    0.861163    0.860193    0.860916    0.000000   -0.000000   -0.001373
   42.600818    0.861347    0.860378    0.861101    0.000000   -0.000000   -0.001372
   42.626699    0.861530    0.860562    0.861285    0.000000   -0.000000   -0.001370
   42.652580    0.861713    0.860746    0.861468    0.000000   -0.000000   -0.001368
   42.678462    0.861896    0.860930    0.861651    0.000000   -0.000000   -0.001367
   42.704343    0.862079    0.861113    0.861834    0.000000   -0.000000   -0.001365
   42.730225    0.862261    0.861296    0.862016    0.000000   -0.000000   -0.001364
   42.756106    0.862442    0.861479    0.862198    0.000000   -0.000000   -0.001362
   42.781988    0.862624    0.861661    0.862380    0.000000   -0.000000   -0.001361
   42.807869    0.862804    0.861843    0.862561    0.000000   -0.000000   -0.001359
   42.833750    0.862985    0.862025    0.862742    0.000000   -0.000000   -0.001358
   42.859632    0.863165    0.862206    0.862923    0.000000   -0.000000   -0.001356
   42.885513    0.863345    0.862386    0.863103    0.000000   -0.000000   -0.001355
   42.911395    0.863524    0.862567    0.863283    0.000000   -0.000000   -0.001353
   42.937276    0.863703    0.862747    0.863462    0.000000   -0.000000   -0.001352
   42.963158    0.863882    0.862926    0.863641    0.000000   -0.000000   -0.001350
   42.989039    0.864060    0.863106    0.863820    0.000000   -0.000000   -0.001349
   43.014920    0.864238    0.863285    0.863998    0.000000   -0.000000   -0.001347
   43.040802    0.864416    0.863463    0.864176    0.000000   -0.000000   -0.001346
   43.066683    0.864593    0.863641    0.864354    0.000000   -0.000000   -0.001344
   43.092565    0.864770    0.863819    0.864531    0.000000   -0.000000   -0.001343
   43.118446    0.864946    0.863997    0.864708    0.000000   -0.000000   -0.001341
   43.144327    0.865123    0.864174    0.864884    0.000000   -0.000000   -0.001340
   43.170209    0.865298    0.864351    0.865061    0.000000   -0.000000   -0.001338
   43.196090    0.865474    0.864527    0.865236    0.000000   -0.000000   -0.001337
   43.221972    0.865649    0.864703    0.865412    0.000000   -0.000000   -0.001335
   43.247853    0.865824    0.864879    0.865587    0.000000   -0.000000   -0.001334
   43.273735    0.865998    0.865054    0.865762    0.000000   -0.000000   -0.001332
   43.299616    0.866172    0.865229    0.865936    0.000000   -0.000000   -0.001331
   43.325497    0.866346    0.865403    0.866110    0.000000   -0.000000   -0.001329
   43.351379    0.866519    0.865578    0.866284    0.000000   -0.000000   -0.001328
   43.377260    0.866692    0.865752    0.866457    0.000000   -0.000000   -0.001327
   43.403142    0.866864    0.865925    0.866630    0.000000   -0.000000   -0.001325
   43.429023    0.867037    0.866098    0.866803    0.000000   -0.000000   -0.001324
   43.454905    0.867209    0.866271    0.866975    0.000000   -0.000000   -0.001322
   43.480786    0.867380    0.866444    0.867147    0.000000   -0.000000   -0.001321
   43.506667    0.867551    0.866616    0.867318    0.000000   -0.000000   -0.001319
   43.532549    0.867722    0.866788    0.867490    0.000000   -0.000000   -0.001318
   43.558430    0.867893    0.866959    0.867660    0.000000   -0.000000   -0.001316
   43.584312    0.868063    0.867130    0.867831    0.000000   -0.000000   -0.001315
   43.610193    0.868233    0.867301    0.868001    0.000000   -0.000000   -0.001313
   43.636074    0.868402    0.867472    0.868171    0.000000   -0.000000   -0.001312
   43.661956    0.868571    0.867642    0.868340    0.000000   -0.000000   -0.001311
   43.687837    0.868740    0.867811    0.868510    0.000000   -0.000000   -0.001309
   43.713719    0.868909    0.867981    0.868679    0.000000   -0.000000   -0.001308
   43.739600    0.869077    0.868150    0.868847    0.000000   -0.000000   -0.001306
   43.765482    0.869245    0.868319    0.869015    0.000000   -0.000000   -0.001305
   43.791363    0.869412    0.868487    0.869183    0.000000   -0.000000   -0.001303
   43.817244    0.869579    0.868655    0.869350    0.000000   -0.000000   -0.001302
   43.843126    0.869746    0.868823    0.869518    0.000000   -0.000000   -0.001301
   43.869007    0.869912    0.868990    0.869684    0.000000   -0.000000   -0.001299
   43.894889    0.870079    0.869157    0.869851    0.000000   -0.000000   -0.001298
   43.920770    0.870244    0.869324    0.870017    0.000000   -0.000000   -0.001296
   43.946651    0.870410    0.869490    0.870183    0.000000   -0.000000   -0.001295
   43.972533    0.870575    0.869657    0.870348    0.000000   -0.000000   -0.001293
   43.998414    0.870740    0.869822    0.870514    0.000000   -0.000000   -0.001292
   44.024296    0.870904    0.869988    0.870678    0.000000   -0.000000   -0.001291
   44.050177    0.871069    0.870153    0.870843    0.000000   -0.000000   -0.001289
   44.076059    0.871232    0.870318    0.871007    0.000000   -0.000000   -0.001288
   44.101940    0.871396    0.870482    0.871171    0.000000   -0.000000   -0.001286
   44.127821    0.871559    0.870646    0.871335    0.000000   -0.000000   -0.001285
   44.153703    0.871722    0.870810    0.871498    0.000000   -0.000000   -0.001284
   44.179584    0.871885    0.870973    0.871661    0.000000   -0.000000   -0.001282
   44.205466    0.872047    0.871137    0.871823    0.000000   -0.000000   -0.001281
   44.231347    0.872209    0.871299    0.871986    0.000000   -0.000000   -0.001279
   44.257229    0.872370    0.871462    0.872147    0.000000   -0.000000   -0.001278
   44.283110    0.872532    0.871624    0.872309    0.000000   -0.000000   -0.001277
   44.308991    0.872693    0.871786    0.872470    0.000000   -0.000000   -0.001275
   44.334873    0.872853    0.871948    0.872631    0.000000   -0.000000   -0.001274
   44.360754    0.873014    0.872109    0.872792    0.000000   -0.000000   -0.001272
   44.386636    0.873174    0.872270    0.872952    0.000000   -0.000000   -0.001271
   44.412517    0.873333    0.872430    0.873112    0.000000   -0.000000   -0.001270
   44.438398    0.873493    0.872591    0.873272    0.000000   -0.000000   -0.001268
   44.464280    0.873652    0.872751    0.873432    0.000000   -0.000000   -0.001267
   44.490161    0.873811    0.872910    0.873591    0.000000   -0.000000   -0.001266
   44.516043    0.873969    0.873070    0.873749    0.000000   -0.000000   -0.001264
   44.541924    0.874127    0.873229    0.873908    0.000000   -0.000000   -0.001263
   44.567806    0.874285    0.873388    0.874066    0.000000   -0.000000   -0.001261
   44.593687    0.874443    0.873546    0.874224    0.000000   -0.000000   -0.001260
   44.619568    0.874600    0.873704    0.874382    0.000000   -0.000000   -0.001259
   44.645450    0.874757    0.873862    0.874539    0.000000   -0.000000   -0.001257
   44.671331    0.874913    0.874020    0.874696    0.000000   -0.000000   -0.001256
   44.697213    0.875070    0.874177    0.874852    0.000000   -0.000000   -0.001255
   44.723094    0.875226    0.874334    0.875009    0.000000   -0.000000   -0.001253
   44.748976    0.875381    0.874490    0.875165    0.000000   -0.000000   -0.001252
   44.774857    0.875537    0.874647    0.875320    0.000000   -0.000000   -0.001251
   44.800738    0.875692    0.874803    0.875476    0.000000   -0.000000   -0.001249
   44.826620    0.875847    0.874958    0.875631    0.000000   -0.000000   -0.001248
   44.852501    0.876001    0.875114    0.875786    0.000000   -0.000000   -0.001247
   44.878383    0.876155    0.875269    0.875940    0.000000   -0.000000   -0.001245
   44.904264    0.876309    0.875424    0.876095    0.000000   -0.000000   -0.001244
   44.930145    0.876463    0.875578    0.876249    0.000000   -0.000000   -0.001243
   44.956027    0.876616    0.875732    0.876402    0.000000   -0.000000   -0.001241
   44.981908    0.876769    0.875886    0.876555    0.000000   -0.000000   -0.001240
   45.007790    0.876922    0.876040    0.876709    0.000000   -0.000000   -0.001239
   45.033671    0.877075    0.876193    0.876861    0.000000   -0.000000   -0.001237
   45.059553    0.877227    0.876346    0.877014    0.000000   -0.000000   -0.001236
   45.085434    0.877378    0.876499    0.877166    0.000000   -0.000000   -0.001235
   45.111315    0.877530    0.876651    0.877318    0.000000   -0.000000   -0.001233
   45.137197    0.877681    0.876803    0.877469    0.000000   -0.000000   -0.001232
   45.163078    0.877832    0.876955    0.877621    0.000000   -0.000000   -0.001231
   45.188960    0.877983    0.877107    0.877772    0.000000   -0.000000   -0.001229
   45.214841    0.878133    0.877258    0.877922    0.000000   -0.000000   -0.001228
   45.240722    0.878284    0.877409    0.878073    0.000000   -0.000000   -0.001227
   45.266604    0.878433    0.877560    0.878223    0.000000   -0.000000   -0.001225
   45.292485    0.878583    0.877710    0.878373    0.000000   -0.000000   -0.001224
   45.318367    0.878732    0.877860    0.878522    0.000000   -0.000000   -0.001223
   45.344248    0.878881    0.878010    0.878672    0.000000   -0.000000   -0.001221
   45.370130    0.879030    0.878160    0.878821    0.000000   -0.000000   -0.001220
   45.396011    0.879178    0.878309    0.878969    0.000000   -0.000000   -0.001219
   45.421892    0.879326    0.878458    0.879118    0.000000   -0.000000   -0.001218
   45.447774    0.879474    0.878607    0.879266    0.000000   -0.000000   -0.001216
   45.473655    0.879622    0.878755    0.879414    0.000000   -0.000000   -0.001215
   45.499537    0.879769    0.878903    0.879561    0.000000   -0.000000   -0.001214
   45.525418    0.879916    0.879051    0.879709    0.000000   -0.000000   -0.001212
   45.551300    0.880063    0.879199    0.879856    0.000000   -0.000000   -0.001211
   45.577181    0.880209    0.879346    0.880002    0.000000   -0.000000   -0.001210
   45.603062    0.880355    0.879493    0.880149    0.000000   -0.000000   -0.001208
   45.628944    0.880501    0.879640    0.880295    0.000000   -0.000000   -0.001207
   45.654825    0.880647    0.879786    0.880441    0.000000   -0.000000   -0.001206
   45.680707    0.880792    0.879933    0.880587    0.000000   -0.000000   -0.001205
   45.706588    0.880937    0.880078    0.880732    0.000000   -0.000000   -0.001203
   45.732469    0.881082    0.880224    0.880877    0.000000   -0.000000   -0.001202
   45.758351    0.881227    0.880370    0.881022    0.000000   -0.000000   -0.001201
   45.784232    0.881371    0.880515    0.881166    0.000000   -0.000000   -0.001200
   45.810114    0.881515    0.880659    0.881311    0.000000   -0.000000   -0.001198
   45.835995    0.881658    0.880804    0.881455    0.000000   -0.000000   -0.001197
   45.861877    0.881802    0.880948    0.881598    0.000000   -0.000000   -0.001196
   45.887758    0.881945    0.881092    0.881742    0.000000   -0.000000   -0.001194
   45.913639    0.882088    0.881236    0.881885    0.000000   -0.000000   -0.001193
   45.939521    0.882231    0.881380    0.882028    0.000000   -0.000000   -0.001192
   45.965402    0.882373    0.881523    0.882171    0.000000   -0.000000   -0.001191
   45.991284    0.882515    0.881666    0.882313    0.000000   -0.000000   -0.001189
   46.017165    0.882657    0.881808    0.882455    0.000000   -0.000000   -0.001188
   46.043047    0.882798    0.881951    0.882597    0.000000   -0.000000   -0.001187
   46.068928    0.882940    0.882093    0.882738    0.000000   -0.000000   -0.001186
   46.094809    0.883081    0.882235    0.882880    0.000000   -0.000000   -0.001184
 
 The outermost node in the dielectric function lies at epsilon=  21.2


--------------------------------------------------------------------------------------------------------


    OPTICS:  cpu time     21.5122: real time     23.1036
    4ORBIT:  cpu time      0.0000: real time      0.0000



 total charge

# of ion       s       p       d       tot
------------------------------------------
    1        1.940   5.411   0.017   7.368
    2        1.941   5.411   0.019   7.371
    3        1.941   5.411   0.019   7.371
    4        0.721   0.643   9.978  11.343
    5        0.721   0.643   9.978  11.343
    6        0.719   0.626   9.974  11.320
    7        0.724   0.629   9.968  11.321
    8        0.724   0.629   9.968  11.321
    9        0.787   0.715   9.955  11.457
   10        0.787   0.715   9.955  11.457
   11        0.731   0.621   9.966  11.318
   12        0.731   0.621   9.966  11.318
   13        1.337   2.401   0.000   3.738
   14        1.337   2.401   0.000   3.738
   15        1.333   2.410   0.000   3.743
   16        1.333   2.410   0.000   3.743
   17        1.334   2.402   0.000   3.737
   18        1.334   2.402   0.000   3.737
   19        1.333   2.410   0.000   3.743
   20        1.333   2.410   0.000   3.743
   21        1.331   2.418   0.000   3.750
   22        1.331   2.418   0.000   3.750
   23        1.327   2.410   0.000   3.737
   24        1.327   2.410   0.000   3.737
   25        1.333   2.433   0.000   3.766
   26        1.333   2.433   0.000   3.766
   27        1.336   2.435   0.000   3.770
--------------------------------------------------
tot         32.460  58.281  89.762 180.503
 
 BZINTS: Fermi energy:    3.225690;  234.000000 electrons
         Band energy:-0.159755E+04;  BLOECHL correction:    0.000000

 total amount of memory used by VASP MPI-rank0   122475. kBytes
=======================================================================

   base      :      30000. kBytes
   nonl-proj :       5575. kBytes
   fftplans  :       2844. kBytes
   grid      :       3384. kBytes
   one-center:         31. kBytes
   HF        :        129. kBytes
   nonlr-proj:      17029. kBytes
   wavefun   :       5434. kBytes
   fock_wrk  :      58049. kBytes
 
  
  
 General timing and accounting informations for this job:
 ========================================================
  
                  Total CPU time used (sec):    12747.334
                            User time (sec):    10936.023
                          System time (sec):     1811.311
                         Elapsed time (sec):    12805.952
  
                   Maximum memory used (kb):      628972.
                   Average memory used (kb):          N/A
  
                          Minor page faults:      2744962
                          Major page faults:            0
                 Voluntary context switches:        85349
