   2   2   1   0
  0.2016476E+02  0.3849278E-09  0.3849279E-09  0.3849278E-09  0.5000000E-15
  1.000000000000000E-004
  CAR 
 unknown system                          
     22.08597732     -8.22073680  301      5.72666559      1.00000000
     -8.221  0.0000E+00  0.0000E+00  0.0000E+00  0.0000E+00
     -8.120  0.0000E+00  0.0000E+00  0.0000E+00  0.0000E+00
     -8.019  0.0000E+00  0.0000E+00  0.0000E+00  0.0000E+00
     -7.918  0.0000E+00  0.0000E+00  0.0000E+00  0.0000E+00
     -7.817  0.0000E+00  0.0000E+00  0.0000E+00  0.0000E+00
     -7.716  0.0000E+00  0.0000E+00  0.0000E+00  0.0000E+00
     -7.615  0.0000E+00  0.0000E+00  0.0000E+00  0.0000E+00
     -7.514  0.0000E+00  0.0000E+00  0.0000E+00  0.0000E+00
     -7.413  0.0000E+00  0.0000E+00  0.0000E+00  0.0000E+00
     -7.312  0.0000E+00  0.0000E+00  0.0000E+00  0.0000E+00
     -7.211  0.0000E+00  0.0000E+00  0.0000E+00  0.0000E+00
     -7.109  0.0000E+00  0.0000E+00  0.0000E+00  0.0000E+00
     -7.008  0.0000E+00  0.0000E+00  0.0000E+00  0.0000E+00
     -6.907  0.0000E+00  0.0000E+00  0.0000E+00  0.0000E+00
     -6.806  0.0000E+00  0.0000E+00  0.0000E+00  0.0000E+00
     -6.705  0.0000E+00  0.0000E+00  0.0000E+00  0.0000E+00
     -6.604  0.0000E+00  0.0000E+00  0.0000E+00  0.0000E+00
     -6.503  0.0000E+00  0.0000E+00  0.0000E+00  0.0000E+00
     -6.402  0.0000E+00  0.0000E+00  0.0000E+00  0.0000E+00
     -6.301  0.0000E+00  0.0000E+00  0.0000E+00  0.0000E+00
     -6.200  0.5837E-03  0.5820E-03  0.3979E-05  0.3961E-05
     -6.099  0.2060E-01  0.2059E-01  0.8341E-03  0.8335E-03
     -5.998  0.6911E-01  0.6910E-01  0.5126E-02  0.5124E-02
     -5.897  0.8534E-01  0.8534E-01  0.1394E-01  0.1394E-01
     -5.796  0.9734E-01  0.9733E-01  0.2304E-01  0.2304E-01
     -5.695  0.1135E+00  0.1135E+00  0.3368E-01  0.3367E-01
     -5.594  0.1307E+00  0.1307E+00  0.4600E-01  0.4600E-01
     -5.493  0.1488E+00  0.1488E+00  0.6012E-01  0.6012E-01
     -5.392  0.1626E+00  0.1626E+00  0.7591E-01  0.7591E-01
     -5.291  0.1702E+00  0.1702E+00  0.9277E-01  0.9277E-01
     -5.190  0.1774E+00  0.1774E+00  0.1103E+00  0.1103E+00
     -5.089  0.1895E+00  0.1895E+00  0.1288E+00  0.1288E+00
     -4.988  0.2020E+00  0.2020E+00  0.1486E+00  0.1486E+00
     -4.887  0.2149E+00  0.2149E+00  0.1696E+00  0.1696E+00
     -4.786  0.2283E+00  0.2283E+00  0.1920E+00  0.1920E+00
     -4.685  0.2421E+00  0.2421E+00  0.2157E+00  0.2157E+00
     -4.584  0.2550E+00  0.2550E+00  0.2409E+00  0.2409E+00
     -4.483  0.2689E+00  0.2689E+00  0.2673E+00  0.2673E+00
     -4.382  0.2859E+00  0.2859E+00  0.2953E+00  0.2953E+00
     -4.281  0.3048E+00  0.3048E+00  0.3251E+00  0.3251E+00
     -4.180  0.3296E+00  0.3296E+00  0.3571E+00  0.3571E+00
     -4.079  0.3843E+00  0.3843E+00  0.3929E+00  0.3929E+00
     -3.978  0.4262E+00  0.4262E+00  0.4340E+00  0.4340E+00
     -3.877  0.4418E+00  0.4418E+00  0.4781E+00  0.4781E+00
     -3.776  0.4307E+00  0.4307E+00  0.5224E+00  0.5224E+00
     -3.675  0.4072E+00  0.4072E+00  0.5643E+00  0.5643E+00
     -3.574  0.4552E+00  0.4552E+00  0.6084E+00  0.6084E+00
     -3.473  0.4262E+00  0.4262E+00  0.6536E+00  0.6536E+00
     -3.372  0.3906E+00  0.3906E+00  0.6946E+00  0.6946E+00
     -3.271  0.3648E+00  0.3648E+00  0.7327E+00  0.7327E+00
     -3.170  0.3450E+00  0.3450E+00  0.7685E+00  0.7685E+00
     -3.069  0.3334E+00  0.3334E+00  0.8027E+00  0.8027E+00
     -2.968  0.3265E+00  0.3265E+00  0.8361E+00  0.8361E+00
     -2.867  0.3308E+00  0.3309E+00  0.8689E+00  0.8689E+00
     -2.766  0.3308E+00  0.3308E+00  0.9025E+00  0.9025E+00
     -2.665  0.3060E+00  0.3060E+00  0.9349E+00  0.9349E+00
     -2.563  0.2564E+00  0.2563E+00  0.9635E+00  0.9635E+00
     -2.462  0.1369E+00  0.1369E+00  0.9871E+00  0.9871E+00
     -2.361  0.5782E-01  0.5778E-01  0.9954E+00  0.9954E+00
     -2.260  0.2058E-01  0.2056E-01  0.9992E+00  0.9992E+00
     -2.159  0.0000E+00  0.0000E+00  0.1000E+01  0.1000E+01
     -2.058  0.0000E+00  0.0000E+00  0.1000E+01  0.1000E+01
     -1.957  0.0000E+00  0.0000E+00  0.1000E+01  0.1000E+01
     -1.856  0.6657E-02  0.6673E-02  0.1000E+01  0.1000E+01
     -1.755  0.2971E-01  0.2973E-01  0.1002E+01  0.1002E+01
     -1.654  0.5989E-01  0.5992E-01  0.1006E+01  0.1006E+01
     -1.553  0.9720E-01  0.9724E-01  0.1014E+01  0.1014E+01
     -1.452  0.1416E+00  0.1417E+00  0.1026E+01  0.1026E+01
     -1.351  0.3310E+00  0.3311E+00  0.1052E+01  0.1052E+01
     -1.250  0.3692E+00  0.3692E+00  0.1087E+01  0.1087E+01
     -1.149  0.4134E+00  0.4134E+00  0.1126E+01  0.1126E+01
     -1.048  0.6411E+00  0.6409E+00  0.1176E+01  0.1176E+01
     -0.947  0.7881E+00  0.7881E+00  0.1250E+01  0.1250E+01
     -0.846  0.7010E+00  0.7010E+00  0.1326E+01  0.1326E+01
     -0.745  0.5390E+00  0.5389E+00  0.1390E+01  0.1390E+01
     -0.644  0.4116E+00  0.4116E+00  0.1436E+01  0.1436E+01
     -0.543  0.3569E+00  0.3569E+00  0.1474E+01  0.1474E+01
     -0.442  0.3173E+00  0.3173E+00  0.1508E+01  0.1508E+01
     -0.341  0.2924E+00  0.2924E+00  0.1539E+01  0.1539E+01
     -0.240  0.2742E+00  0.2742E+00  0.1568E+01  0.1568E+01
     -0.139  0.2585E+00  0.2585E+00  0.1594E+01  0.1594E+01
     -0.038  0.2438E+00  0.2438E+00  0.1620E+01  0.1620E+01
      0.063  0.2301E+00  0.2301E+00  0.1644E+01  0.1644E+01
      0.164  0.2167E+00  0.2167E+00  0.1666E+01  0.1666E+01
      0.265  0.2042E+00  0.2042E+00  0.1688E+01  0.1688E+01
      0.366  0.1926E+00  0.1926E+00  0.1708E+01  0.1708E+01
      0.467  0.1795E+00  0.1795E+00  0.1726E+01  0.1726E+01
      0.568  0.1587E+00  0.1587E+00  0.1744E+01  0.1744E+01
      0.669  0.1435E+00  0.1435E+00  0.1759E+01  0.1759E+01
      0.770  0.1338E+00  0.1338E+00  0.1773E+01  0.1773E+01
      0.871  0.1290E+00  0.1290E+00  0.1786E+01  0.1786E+01
      0.972  0.1251E+00  0.1251E+00  0.1799E+01  0.1799E+01
      1.073  0.1214E+00  0.1214E+00  0.1811E+01  0.1811E+01
      1.174  0.1178E+00  0.1178E+00  0.1823E+01  0.1823E+01
      1.275  0.1142E+00  0.1142E+00  0.1835E+01  0.1835E+01
      1.376  0.1107E+00  0.1107E+00  0.1846E+01  0.1846E+01
      1.477  0.2259E+00  0.2255E+00  0.1862E+01  0.1862E+01
      1.578  0.5649E+00  0.5647E+00  0.1900E+01  0.1900E+01
      1.679  0.5756E+00  0.5755E+00  0.1956E+01  0.1956E+01
      1.780  0.6205E+00  0.6205E+00  0.2017E+01  0.2017E+01
      1.882  0.6141E+00  0.6142E+00  0.2080E+01  0.2080E+01
      1.983  0.5573E+00  0.5575E+00  0.2140E+01  0.2140E+01
      2.084  0.6079E+00  0.6091E+00  0.2199E+01  0.2199E+01
      2.185  0.4945E+00  0.4945E+00  0.2250E+01  0.2250E+01
      2.286  0.4876E+00  0.4877E+00  0.2300E+01  0.2299E+01
      2.387  0.4790E+00  0.4790E+00  0.2348E+01  0.2348E+01
      2.488  0.4684E+00  0.4685E+00  0.2396E+01  0.2396E+01
      2.589  0.8826E+00  0.8815E+00  0.2460E+01  0.2460E+01
      2.690  0.6540E+00  0.6539E+00  0.2530E+01  0.2530E+01
      2.791  0.6767E+00  0.6767E+00  0.2595E+01  0.2595E+01
      2.892  0.7502E+00  0.7501E+00  0.2667E+01  0.2667E+01
      2.993  0.8833E+00  0.8845E+00  0.2752E+01  0.2752E+01
      3.094  0.7508E+00  0.7509E+00  0.2829E+01  0.2829E+01
      3.195  0.7411E+00  0.7412E+00  0.2904E+01  0.2904E+01
      3.296  0.7318E+00  0.7319E+00  0.2979E+01  0.2979E+01
      3.397  0.7270E+00  0.7270E+00  0.3052E+01  0.3052E+01
      3.498  0.7302E+00  0.7303E+00  0.3126E+01  0.3126E+01
      3.599  0.7245E+00  0.7246E+00  0.3199E+01  0.3199E+01
      3.700  0.7163E+00  0.7164E+00  0.3272E+01  0.3272E+01
      3.801  0.7034E+00  0.7034E+00  0.3344E+01  0.3344E+01
      3.902  0.6856E+00  0.6856E+00  0.3414E+01  0.3414E+01
      4.003  0.6658E+00  0.6659E+00  0.3482E+01  0.3482E+01
      4.104  0.6549E+00  0.6550E+00  0.3549E+01  0.3549E+01
      4.205  0.6619E+00  0.6620E+00  0.3615E+01  0.3615E+01
      4.306  0.6240E+00  0.6241E+00  0.3681E+01  0.3681E+01
      4.407  0.5579E+00  0.5579E+00  0.3741E+01  0.3741E+01
      4.508  0.4674E+00  0.4674E+00  0.3793E+01  0.3793E+01
      4.609  0.3835E+00  0.3835E+00  0.3835E+01  0.3835E+01
      4.710  0.3119E+00  0.3119E+00  0.3870E+01  0.3870E+01
      4.811  0.2415E+00  0.2414E+00  0.3898E+01  0.3898E+01
      4.912  0.2080E+00  0.2080E+00  0.3921E+01  0.3921E+01
      5.013  0.1817E+00  0.1817E+00  0.3940E+01  0.3940E+01
      5.114  0.1597E+00  0.1597E+00  0.3957E+01  0.3957E+01
      5.215  0.1420E+00  0.1420E+00  0.3973E+01  0.3973E+01
      5.316  0.1287E+00  0.1287E+00  0.3986E+01  0.3986E+01
      5.417  0.5173E-01  0.5166E-01  0.3995E+01  0.3995E+01
      5.518  0.2306E-01  0.2301E-01  0.3998E+01  0.3998E+01
      5.619  0.5823E-02  0.5789E-02  0.4000E+01  0.4000E+01
      5.720  0.5570E-06  0.2384E-06  0.4000E+01  0.4000E+01
      5.821  0.0000E+00  0.0000E+00  0.4000E+01  0.4000E+01
      5.922  0.0000E+00  0.0000E+00  0.4000E+01  0.4000E+01
      6.023  0.0000E+00  0.0000E+00  0.4000E+01  0.4000E+01
      6.124  0.0000E+00  0.0000E+00  0.4000E+01  0.4000E+01
      6.225  0.1380E-01  0.1378E-01  0.4000E+01  0.4000E+01
      6.326  0.4312E-01  0.4310E-01  0.4003E+01  0.4003E+01
      6.428  0.6067E-01  0.6066E-01  0.4009E+01  0.4009E+01
      6.529  0.7792E-01  0.7789E-01  0.4015E+01  0.4015E+01
      6.630  0.1092E+00  0.1092E+00  0.4025E+01  0.4025E+01
      6.731  0.1337E+00  0.1337E+00  0.4037E+01  0.4037E+01
      6.832  0.1523E+00  0.1523E+00  0.4052E+01  0.4052E+01
      6.933  0.1812E+00  0.1811E+00  0.4068E+01  0.4068E+01
      7.034  0.2102E+00  0.2102E+00  0.4088E+01  0.4088E+01
      7.135  0.2395E+00  0.2395E+00  0.4111E+01  0.4111E+01
      7.236  0.2780E+00  0.2780E+00  0.4137E+01  0.4137E+01
      7.337  0.3395E+00  0.3395E+00  0.4168E+01  0.4168E+01
      7.438  0.4163E+00  0.4162E+00  0.4206E+01  0.4206E+01
      7.539  0.5084E+00  0.5083E+00  0.4253E+01  0.4252E+01
      7.640  0.6456E+00  0.6454E+00  0.4310E+01  0.4310E+01
      7.741  0.8432E+00  0.8428E+00  0.4385E+01  0.4385E+01
      7.842  0.9482E+00  0.9481E+00  0.4477E+01  0.4477E+01
      7.943  0.9889E+00  0.9888E+00  0.4574E+01  0.4574E+01
      8.044  0.1022E+01  0.1022E+01  0.4676E+01  0.4676E+01
      8.145  0.9794E+00  0.9795E+00  0.4778E+01  0.4778E+01
      8.246  0.9406E+00  0.9406E+00  0.4875E+01  0.4875E+01
      8.347  0.8387E+00  0.8389E+00  0.4966E+01  0.4966E+01
      8.448  0.6467E+00  0.6469E+00  0.5040E+01  0.5040E+01
      8.549  0.4617E+00  0.4618E+00  0.5095E+01  0.5095E+01
      8.650  0.3080E+00  0.3081E+00  0.5134E+01  0.5134E+01
      8.751  0.2515E+00  0.2514E+00  0.5160E+01  0.5160E+01
      8.852  0.3213E+00  0.3210E+00  0.5188E+01  0.5188E+01
      8.953  0.4016E+00  0.4013E+00  0.5225E+01  0.5225E+01
      9.054  0.5031E+00  0.5023E+00  0.5270E+01  0.5270E+01
      9.155  0.7670E+00  0.7660E+00  0.5332E+01  0.5332E+01
      9.256  0.1213E+01  0.1212E+01  0.5431E+01  0.5431E+01
      9.357  0.1691E+01  0.1690E+01  0.5578E+01  0.5577E+01
      9.458  0.1564E+01  0.1563E+01  0.5745E+01  0.5744E+01
      9.559  0.8015E+00  0.8115E+00  0.5890E+01  0.5890E+01
      9.660  0.6903E+00  0.6903E+00  0.5964E+01  0.5963E+01
      9.761  0.6779E+00  0.6778E+00  0.6033E+01  0.6032E+01
      9.862  0.6644E+00  0.6644E+00  0.6101E+01  0.6100E+01
      9.963  0.6257E+00  0.6258E+00  0.6166E+01  0.6166E+01
     10.064  0.5618E+00  0.5620E+00  0.6226E+01  0.6226E+01
     10.165  0.4803E+00  0.4806E+00  0.6279E+01  0.6279E+01
     10.266  0.4550E+00  0.4551E+00  0.6325E+01  0.6325E+01
     10.367  0.4579E+00  0.4579E+00  0.6371E+01  0.6371E+01
     10.468  0.4724E+00  0.4725E+00  0.6421E+01  0.6421E+01
     10.569  0.4721E+00  0.4720E+00  0.6467E+01  0.6467E+01
     10.670  0.4306E+00  0.4306E+00  0.6512E+01  0.6512E+01
     10.771  0.3895E+00  0.3895E+00  0.6554E+01  0.6554E+01
     10.872  0.3611E+00  0.3611E+00  0.6592E+01  0.6591E+01
     10.974  0.3454E+00  0.3454E+00  0.6627E+01  0.6627E+01
     11.075  0.3425E+00  0.3425E+00  0.6662E+01  0.6662E+01
     11.176  0.5812E+00  0.5807E+00  0.6706E+01  0.6706E+01
     11.277  0.6484E+00  0.6486E+00  0.6771E+01  0.6771E+01
     11.378  0.6633E+00  0.6635E+00  0.6841E+01  0.6841E+01
     11.479  0.6230E+00  0.6231E+00  0.6906E+01  0.6906E+01
     11.580  0.5736E+00  0.5737E+00  0.6964E+01  0.6964E+01
     11.681  0.5789E+00  0.5790E+00  0.7022E+01  0.7022E+01
     11.782  0.6098E+00  0.6100E+00  0.7082E+01  0.7082E+01
     11.883  0.6755E+00  0.6757E+00  0.7147E+01  0.7147E+01
     11.984  0.7891E+00  0.7892E+00  0.7220E+01  0.7220E+01
     12.085  0.8816E+00  0.8815E+00  0.7305E+01  0.7305E+01
     12.186  0.9382E+00  0.9382E+00  0.7397E+01  0.7397E+01
     12.287  0.6273E+00  0.6272E+00  0.7480E+01  0.7480E+01
     12.388  0.5978E+00  0.5977E+00  0.7542E+01  0.7542E+01
     12.489  0.5987E+00  0.5986E+00  0.7602E+01  0.7602E+01
     12.590  0.5901E+00  0.5900E+00  0.7662E+01  0.7662E+01
     12.691  0.5768E+00  0.5768E+00  0.7721E+01  0.7721E+01
     12.792  0.5604E+00  0.5604E+00  0.7778E+01  0.7778E+01
     12.893  0.5485E+00  0.5484E+00  0.7834E+01  0.7834E+01
     12.994  0.5358E+00  0.5357E+00  0.7889E+01  0.7889E+01
     13.095  0.5195E+00  0.5194E+00  0.7942E+01  0.7942E+01
     13.196  0.5033E+00  0.5032E+00  0.7994E+01  0.7994E+01
     13.297  0.4918E+00  0.4921E+00  0.8044E+01  0.8044E+01
     13.398  0.5006E+00  0.5008E+00  0.8094E+01  0.8094E+01
     13.499  0.4948E+00  0.4948E+00  0.8145E+01  0.8145E+01
     13.600  0.4768E+00  0.4767E+00  0.8194E+01  0.8194E+01
     13.701  0.4465E+00  0.4464E+00  0.8241E+01  0.8241E+01
     13.802  0.4358E+00  0.4359E+00  0.8284E+01  0.8284E+01
     13.903  0.4717E+00  0.4717E+00  0.8331E+01  0.8331E+01
     14.004  0.5745E+00  0.5748E+00  0.8382E+01  0.8382E+01
     14.105  0.7116E+00  0.7119E+00  0.8447E+01  0.8447E+01
     14.206  0.7100E+00  0.7103E+00  0.8521E+01  0.8521E+01
     14.307  0.7207E+00  0.7210E+00  0.8593E+01  0.8593E+01
     14.408  0.7477E+00  0.7479E+00  0.8668E+01  0.8668E+01
     14.509  0.7924E+00  0.7924E+00  0.8745E+01  0.8745E+01
     14.610  0.8101E+00  0.8102E+00  0.8826E+01  0.8826E+01
     14.711  0.9051E+00  0.9050E+00  0.8909E+01  0.8909E+01
     14.812  0.1163E+01  0.1163E+01  0.9026E+01  0.9026E+01
     14.913  0.8192E+00  0.8188E+00  0.9115E+01  0.9115E+01
     15.014  0.7623E+00  0.7621E+00  0.9195E+01  0.9195E+01
     15.115  0.7291E+00  0.7293E+00  0.9270E+01  0.9270E+01
     15.216  0.7489E+00  0.7490E+00  0.9344E+01  0.9344E+01
     15.317  0.7510E+00  0.7511E+00  0.9420E+01  0.9420E+01
     15.419  0.7294E+00  0.7294E+00  0.9495E+01  0.9495E+01
     15.520  0.6946E+00  0.6946E+00  0.9567E+01  0.9567E+01
     15.621  0.6535E+00  0.6533E+00  0.9635E+01  0.9635E+01
     15.722  0.6587E+00  0.6586E+00  0.9702E+01  0.9702E+01
     15.823  0.6315E+00  0.6316E+00  0.9768E+01  0.9768E+01
     15.924  0.6509E+00  0.6510E+00  0.9833E+01  0.9833E+01
     16.025  0.5828E+00  0.5829E+00  0.9894E+01  0.9894E+01
     16.126  0.5526E+00  0.5531E+00  0.9951E+01  0.9951E+01
     16.227  0.5744E+00  0.5748E+00  0.1001E+02  0.1001E+02
     16.328  0.6088E+00  0.6090E+00  0.1007E+02  0.1007E+02
     16.429  0.6522E+00  0.6522E+00  0.1013E+02  0.1013E+02
     16.530  0.7035E+00  0.7021E+00  0.1020E+02  0.1020E+02
     16.631  0.5465E+00  0.5464E+00  0.1026E+02  0.1026E+02
     16.732  0.5188E+00  0.5188E+00  0.1031E+02  0.1031E+02
     16.833  0.4784E+00  0.4784E+00  0.1036E+02  0.1036E+02
     16.934  0.4231E+00  0.4232E+00  0.1041E+02  0.1041E+02
     17.035  0.3973E+00  0.3974E+00  0.1045E+02  0.1045E+02
     17.136  0.4045E+00  0.4048E+00  0.1049E+02  0.1049E+02
     17.237  0.4633E+00  0.4636E+00  0.1053E+02  0.1053E+02
     17.338  0.4765E+00  0.4766E+00  0.1058E+02  0.1058E+02
     17.439  0.4882E+00  0.4883E+00  0.1063E+02  0.1063E+02
     17.540  0.4833E+00  0.4832E+00  0.1068E+02  0.1068E+02
     17.641  0.4738E+00  0.4740E+00  0.1073E+02  0.1073E+02
     17.742  0.5890E+00  0.5895E+00  0.1078E+02  0.1078E+02
     17.843  0.8450E+00  0.8442E+00  0.1085E+02  0.1085E+02
     17.944  0.8629E+00  0.8625E+00  0.1094E+02  0.1094E+02
     18.045  0.7971E+00  0.7965E+00  0.1102E+02  0.1102E+02
     18.146  0.7136E+00  0.7134E+00  0.1110E+02  0.1110E+02
     18.247  0.7175E+00  0.7174E+00  0.1117E+02  0.1117E+02
     18.348  0.7276E+00  0.7275E+00  0.1124E+02  0.1124E+02
     18.449  0.7204E+00  0.7204E+00  0.1132E+02  0.1132E+02
     18.550  0.6959E+00  0.6959E+00  0.1139E+02  0.1139E+02
     18.651  0.6542E+00  0.6542E+00  0.1146E+02  0.1146E+02
     18.752  0.5951E+00  0.5952E+00  0.1152E+02  0.1152E+02
     18.853  0.6761E+00  0.6792E+00  0.1158E+02  0.1158E+02
     18.954  0.5262E+00  0.5258E+00  0.1165E+02  0.1165E+02
     19.055  0.4592E+00  0.4585E+00  0.1170E+02  0.1170E+02
     19.156  0.4031E+00  0.4027E+00  0.1174E+02  0.1174E+02
     19.257  0.3565E+00  0.3565E+00  0.1178E+02  0.1178E+02
     19.358  0.3196E+00  0.3198E+00  0.1181E+02  0.1181E+02
     19.459  0.4287E+00  0.4304E+00  0.1185E+02  0.1185E+02
     19.560  0.3971E+00  0.3989E+00  0.1189E+02  0.1189E+02
     19.661  0.3071E+00  0.3075E+00  0.1193E+02  0.1193E+02
     19.762  0.2243E+00  0.2244E+00  0.1195E+02  0.1195E+02
     19.863  0.1590E+00  0.1589E+00  0.1197E+02  0.1197E+02
     19.965  0.1113E+00  0.1110E+00  0.1199E+02  0.1199E+02
     20.066  0.8106E-01  0.8067E-01  0.1200E+02  0.1200E+02
     20.167  0.2886E-01  0.2886E-01  0.1200E+02  0.1200E+02
     20.268  0.0000E+00  0.0000E+00  0.1200E+02  0.1200E+02
     20.369  0.0000E+00  0.0000E+00  0.1200E+02  0.1200E+02
     20.470  0.0000E+00  0.0000E+00  0.1200E+02  0.1200E+02
     20.571  0.0000E+00  0.0000E+00  0.1200E+02  0.1200E+02
     20.672  0.0000E+00  0.0000E+00  0.1200E+02  0.1200E+02
     20.773  0.0000E+00  0.0000E+00  0.1200E+02  0.1200E+02
     20.874  0.0000E+00  0.0000E+00  0.1200E+02  0.1200E+02
     20.975  0.0000E+00  0.0000E+00  0.1200E+02  0.1200E+02
     21.076  0.0000E+00  0.0000E+00  0.1200E+02  0.1200E+02
     21.177  0.0000E+00  0.0000E+00  0.1200E+02  0.1200E+02
     21.278  0.0000E+00  0.0000E+00  0.1200E+02  0.1200E+02
     21.379  0.0000E+00  0.0000E+00  0.1200E+02  0.1200E+02
     21.480  0.0000E+00  0.0000E+00  0.1200E+02  0.1200E+02
     21.581  0.0000E+00  0.0000E+00  0.1200E+02  0.1200E+02
     21.682  0.0000E+00  0.0000E+00  0.1200E+02  0.1200E+02
     21.783  0.0000E+00  0.0000E+00  0.1200E+02  0.1200E+02
     21.884  0.0000E+00  0.0000E+00  0.1200E+02  0.1200E+02
     21.985  0.0000E+00  0.0000E+00  0.1200E+02  0.1200E+02
     22.086  0.0000E+00  0.0000E+00  0.1200E+02  0.1200E+02
     22.08597732     -8.22073680  301      5.72666559      1.00000000
     -8.221  0.0000E+00  0.0000E+00  0.0000E+00  0.0000E+00  0.0000E+00  0.0000E+00  0.0000E+00  0.0000E+00  0.0000E+00  0.0000E+00  0.0000E+00  0.0000E+00  0.0000E+00  0.0000E+00  0.0000E+00  0.0000E+00  0.0000E+00  0.0000E+00
     -8.120  0.0000E+00  0.0000E+00  0.0000E+00  0.0000E+00  0.0000E+00  0.0000E+00  0.0000E+00  0.0000E+00  0.0000E+00  0.0000E+00  0.0000E+00  0.0000E+00  0.0000E+00  0.0000E+00  0.0000E+00  0.0000E+00  0.0000E+00  0.0000E+00
     -8.019  0.0000E+00  0.0000E+00  0.0000E+00  0.0000E+00  0.0000E+00  0.0000E+00  0.0000E+00  0.0000E+00  0.0000E+00  0.0000E+00  0.0000E+00  0.0000E+00  0.0000E+00  0.0000E+00  0.0000E+00  0.0000E+00  0.0000E+00  0.0000E+00
     -7.918  0.0000E+00  0.0000E+00  0.0000E+00  0.0000E+00  0.0000E+00  0.0000E+00  0.0000E+00  0.0000E+00  0.0000E+00  0.0000E+00  0.0000E+00  0.0000E+00  0.0000E+00  0.0000E+00  0.0000E+00  0.0000E+00  0.0000E+00  0.0000E+00
     -7.817  0.0000E+00  0.0000E+00  0.0000E+00  0.0000E+00  0.0000E+00  0.0000E+00  0.0000E+00  0.0000E+00  0.0000E+00  0.0000E+00  0.0000E+00  0.0000E+00  0.0000E+00  0.0000E+00  0.0000E+00  0.0000E+00  0.0000E+00  0.0000E+00
     -7.716  0.0000E+00  0.0000E+00  0.0000E+00  0.0000E+00  0.0000E+00  0.0000E+00  0.0000E+00  0.0000E+00  0.0000E+00  0.0000E+00  0.0000E+00  0.0000E+00  0.0000E+00  0.0000E+00  0.0000E+00  0.0000E+00  0.0000E+00  0.0000E+00
     -7.615  0.0000E+00  0.0000E+00  0.0000E+00  0.0000E+00  0.0000E+00  0.0000E+00  0.0000E+00  0.0000E+00  0.0000E+00  0.0000E+00  0.0000E+00  0.0000E+00  0.0000E+00  0.0000E+00  0.0000E+00  0.0000E+00  0.0000E+00  0.0000E+00
     -7.514  0.0000E+00  0.0000E+00  0.0000E+00  0.0000E+00  0.0000E+00  0.0000E+00  0.0000E+00  0.0000E+00  0.0000E+00  0.0000E+00  0.0000E+00  0.0000E+00  0.0000E+00  0.0000E+00  0.0000E+00  0.0000E+00  0.0000E+00  0.0000E+00
     -7.413  0.0000E+00  0.0000E+00  0.0000E+00  0.0000E+00  0.0000E+00  0.0000E+00  0.0000E+00  0.0000E+00  0.0000E+00  0.0000E+00  0.0000E+00  0.0000E+00  0.0000E+00  0.0000E+00  0.0000E+00  0.0000E+00  0.0000E+00  0.0000E+00
     -7.312  0.0000E+00  0.0000E+00  0.0000E+00  0.0000E+00  0.0000E+00  0.0000E+00  0.0000E+00  0.0000E+00  0.0000E+00  0.0000E+00  0.0000E+00  0.0000E+00  0.0000E+00  0.0000E+00  0.0000E+00  0.0000E+00  0.0000E+00  0.0000E+00
     -7.211  0.0000E+00  0.0000E+00  0.0000E+00  0.0000E+00  0.0000E+00  0.0000E+00  0.0000E+00  0.0000E+00  0.0000E+00  0.0000E+00  0.0000E+00  0.0000E+00  0.0000E+00  0.0000E+00  0.0000E+00  0.0000E+00  0.0000E+00  0.0000E+00
     -7.109  0.0000E+00  0.0000E+00  0.0000E+00  0.0000E+00  0.0000E+00  0.0000E+00  0.0000E+00  0.0000E+00  0.0000E+00  0.0000E+00  0.0000E+00  0.0000E+00  0.0000E+00  0.0000E+00  0.0000E+00  0.0000E+00  0.0000E+00  0.0000E+00
     -7.008  0.0000E+00  0.0000E+00  0.0000E+00  0.0000E+00  0.0000E+00  0.0000E+00  0.0000E+00  0.0000E+00  0.0000E+00  0.0000E+00  0.0000E+00  0.0000E+00  0.0000E+00  0.0000E+00  0.0000E+00  0.0000E+00  0.0000E+00  0.0000E+00
     -6.907  0.0000E+00  0.0000E+00  0.0000E+00  0.0000E+00  0.0000E+00  0.0000E+00  0.0000E+00  0.0000E+00  0.0000E+00  0.0000E+00  0.0000E+00  0.0000E+00  0.0000E+00  0.0000E+00  0.0000E+00  0.0000E+00  0.0000E+00  0.0000E+00
     -6.806  0.0000E+00  0.0000E+00  0.0000E+00  0.0000E+00  0.0000E+00  0.0000E+00  0.0000E+00  0.0000E+00  0.0000E+00  0.0000E+00  0.0000E+00  0.0000E+00  0.0000E+00  0.0000E+00  0.0000E+00  0.0000E+00  0.0000E+00  0.0000E+00
     -6.705  0.0000E+00  0.0000E+00  0.0000E+00  0.0000E+00  0.0000E+00  0.0000E+00  0.0000E+00  0.0000E+00  0.0000E+00  0.0000E+00  0.0000E+00  0.0000E+00  0.0000E+00  0.0000E+00  0.0000E+00  0.0000E+00  0.0000E+00  0.0000E+00
     -6.604  0.0000E+00  0.0000E+00  0.0000E+00  0.0000E+00  0.0000E+00  0.0000E+00  0.0000E+00  0.0000E+00  0.0000E+00  0.0000E+00  0.0000E+00  0.0000E+00  0.0000E+00  0.0000E+00  0.0000E+00  0.0000E+00  0.0000E+00  0.0000E+00
     -6.503  0.0000E+00  0.0000E+00  0.0000E+00  0.0000E+00  0.0000E+00  0.0000E+00  0.0000E+00  0.0000E+00  0.0000E+00  0.0000E+00  0.0000E+00  0.0000E+00  0.0000E+00  0.0000E+00  0.0000E+00  0.0000E+00  0.0000E+00  0.0000E+00
     -6.402  0.0000E+00  0.0000E+00  0.0000E+00  0.0000E+00  0.0000E+00  0.0000E+00  0.0000E+00  0.0000E+00  0.0000E+00  0.0000E+00  0.0000E+00  0.0000E+00  0.0000E+00  0.0000E+00  0.0000E+00  0.0000E+00  0.0000E+00  0.0000E+00
     -6.301  0.0000E+00  0.0000E+00  0.0000E+00  0.0000E+00  0.0000E+00  0.0000E+00  0.0000E+00  0.0000E+00  0.0000E+00  0.0000E+00  0.0000E+00  0.0000E+00  0.0000E+00  0.0000E+00  0.0000E+00  0.0000E+00  0.0000E+00  0.0000E+00
     -6.200  0.1234E-03  0.1230E-03  0.4649E-06  0.4636E-06  0.4649E-06  0.4636E-06  0.4649E-06  0.4636E-06  0.0000E+00  0.0000E+00  0.0000E+00  0.0000E+00  0.0000E+00  0.0000E+00  0.0000E+00  0.0000E+00  0.0000E+00  0.0000E+00
     -6.099  0.4353E-02  0.4352E-02  0.1641E-04  0.1640E-04  0.1641E-04  0.1640E-04  0.1641E-04  0.1640E-04  0.0000E+00  0.0000E+00  0.0000E+00  0.0000E+00  0.0000E+00  0.0000E+00  0.0000E+00  0.0000E+00  0.0000E+00  0.0000E+00
     -5.998  0.1460E-01  0.1460E-01  0.5505E-04  0.5503E-04  0.5505E-04  0.5503E-04  0.5505E-04  0.5503E-04  0.0000E+00  0.0000E+00  0.0000E+00  0.0000E+00  0.0000E+00  0.0000E+00  0.0000E+00  0.0000E+00  0.0000E+00  0.0000E+00
     -5.897  0.1797E-01  0.1798E-01  0.1188E-03  0.1188E-03  0.1188E-03  0.1188E-03  0.1188E-03  0.1188E-03  0.0000E+00  0.0000E+00  0.0000E+00  0.0000E+00  0.0000E+00  0.0000E+00  0.0000E+00  0.0000E+00  0.0000E+00  0.0000E+00
     -5.796  0.2046E-01  0.2046E-01  0.1762E-03  0.1762E-03  0.1762E-03  0.1762E-03  0.1762E-03  0.1762E-03  0.0000E+00  0.0000E+00  0.0000E+00  0.0000E+00  0.0000E+00  0.0000E+00  0.0000E+00  0.0000E+00  0.0000E+00  0.0000E+00
     -5.695  0.2382E-01  0.2382E-01  0.2366E-03  0.2366E-03  0.2366E-03  0.2366E-03  0.2366E-03  0.2366E-03  0.0000E+00  0.0000E+00  0.0000E+00  0.0000E+00  0.0000E+00  0.0000E+00  0.0000E+00  0.0000E+00  0.0000E+00  0.0000E+00
     -5.594  0.2740E-01  0.2741E-01  0.3015E-03  0.3015E-03  0.3015E-03  0.3015E-03  0.3015E-03  0.3015E-03  0.0000E+00  0.0000E+00  0.0000E+00  0.0000E+00  0.0000E+00  0.0000E+00  0.0000E+00  0.0000E+00  0.0000E+00  0.0000E+00
     -5.493  0.3117E-01  0.3117E-01  0.3715E-03  0.3715E-03  0.3715E-03  0.3715E-03  0.3715E-03  0.3715E-03  0.0000E+00  0.0000E+00  0.0000E+00  0.0000E+00  0.0000E+00  0.0000E+00  0.0000E+00  0.0000E+00  0.0000E+00  0.0000E+00
     -5.392  0.3403E-01  0.3403E-01  0.4570E-03  0.4570E-03  0.4570E-03  0.4570E-03  0.4570E-03  0.4570E-03  0.0000E+00  0.0000E+00  0.0000E+00  0.0000E+00  0.0000E+00  0.0000E+00  0.0000E+00  0.0000E+00  0.0000E+00  0.0000E+00
     -5.291  0.3555E-01  0.3556E-01  0.5622E-03  0.5622E-03  0.5622E-03  0.5622E-03  0.5622E-03  0.5622E-03  0.0000E+00  0.0000E+00  0.0000E+00  0.0000E+00  0.0000E+00  0.0000E+00  0.0000E+00  0.0000E+00  0.0000E+00  0.0000E+00
     -5.190  0.3701E-01  0.3701E-01  0.6700E-03  0.6699E-03  0.6700E-03  0.6699E-03  0.6700E-03  0.6699E-03  0.0000E+00  0.0000E+00  0.0000E+00  0.0000E+00  0.0000E+00  0.0000E+00  0.0000E+00  0.0000E+00  0.0000E+00  0.0000E+00
     -5.089  0.3951E-01  0.3951E-01  0.7667E-03  0.7667E-03  0.7667E-03  0.7667E-03  0.7667E-03  0.7667E-03  0.0000E+00  0.0000E+00  0.0000E+00  0.0000E+00  0.0000E+00  0.0000E+00  0.0000E+00  0.0000E+00  0.0000E+00  0.0000E+00
     -4.988  0.4211E-01  0.4211E-01  0.8667E-03  0.8667E-03  0.8667E-03  0.8667E-03  0.8667E-03  0.8667E-03  0.0000E+00  0.0000E+00  0.0000E+00  0.0000E+00  0.0000E+00  0.0000E+00  0.0000E+00  0.0000E+00  0.0000E+00  0.0000E+00
     -4.887  0.4480E-01  0.4480E-01  0.9700E-03  0.9700E-03  0.9700E-03  0.9700E-03  0.9700E-03  0.9700E-03  0.0000E+00  0.0000E+00  0.0000E+00  0.0000E+00  0.0000E+00  0.0000E+00  0.0000E+00  0.0000E+00  0.0000E+00  0.0000E+00
     -4.786  0.4759E-01  0.4759E-01  0.1076E-02  0.1076E-02  0.1076E-02  0.1076E-02  0.1076E-02  0.1076E-02  0.0000E+00  0.0000E+00  0.0000E+00  0.0000E+00  0.0000E+00  0.0000E+00  0.0000E+00  0.0000E+00  0.0000E+00  0.0000E+00
     -4.685  0.5048E-01  0.5049E-01  0.1186E-02  0.1186E-02  0.1186E-02  0.1186E-02  0.1186E-02  0.1186E-02  0.0000E+00  0.0000E+00  0.0000E+00  0.0000E+00  0.0000E+00  0.0000E+00  0.0000E+00  0.0000E+00  0.0000E+00  0.0000E+00
     -4.584  0.5319E-01  0.5320E-01  0.1318E-02  0.1318E-02  0.1318E-02  0.1318E-02  0.1318E-02  0.1318E-02  0.0000E+00  0.0000E+00  0.0000E+00  0.0000E+00  0.0000E+00  0.0000E+00  0.0000E+00  0.0000E+00  0.0000E+00  0.0000E+00
     -4.483  0.5618E-01  0.5618E-01  0.1487E-02  0.1487E-02  0.1487E-02  0.1487E-02  0.1487E-02  0.1487E-02  0.0000E+00  0.0000E+00  0.0000E+00  0.0000E+00  0.0000E+00  0.0000E+00  0.0000E+00  0.0000E+00  0.0000E+00  0.0000E+00
     -4.382  0.5984E-01  0.5985E-01  0.1662E-02  0.1662E-02  0.1662E-02  0.1662E-02  0.1662E-02  0.1662E-02  0.0000E+00  0.0000E+00  0.0000E+00  0.0000E+00  0.0000E+00  0.0000E+00  0.0000E+00  0.0000E+00  0.0000E+00  0.0000E+00
     -4.281  0.6395E-01  0.6395E-01  0.1850E-02  0.1850E-02  0.1850E-02  0.1850E-02  0.1850E-02  0.1850E-02  0.0000E+00  0.0000E+00  0.0000E+00  0.0000E+00  0.0000E+00  0.0000E+00  0.0000E+00  0.0000E+00  0.0000E+00  0.0000E+00
     -4.180  0.6934E-01  0.6934E-01  0.2070E-02  0.2070E-02  0.2070E-02  0.2070E-02  0.2070E-02  0.2070E-02  0.0000E+00  0.0000E+00  0.0000E+00  0.0000E+00  0.0000E+00  0.0000E+00  0.0000E+00  0.0000E+00  0.0000E+00  0.0000E+00
     -4.079  0.8129E-01  0.8130E-01  0.2449E-02  0.2449E-02  0.2449E-02  0.2449E-02  0.2449E-02  0.2449E-02  0.0000E+00  0.0000E+00  0.0000E+00  0.0000E+00  0.0000E+00  0.0000E+00  0.0000E+00  0.0000E+00  0.0000E+00  0.0000E+00
     -3.978  0.9044E-01  0.9045E-01  0.2761E-02  0.2761E-02  0.2761E-02  0.2761E-02  0.2761E-02  0.2761E-02  0.0000E+00  0.0000E+00  0.0000E+00  0.0000E+00  0.0000E+00  0.0000E+00  0.0000E+00  0.0000E+00  0.0000E+00  0.0000E+00
     -3.877  0.9382E-01  0.9383E-01  0.2934E-02  0.2934E-02  0.2934E-02  0.2934E-02  0.2934E-02  0.2934E-02  0.0000E+00  0.0000E+00  0.0000E+00  0.0000E+00  0.0000E+00  0.0000E+00  0.0000E+00  0.0000E+00  0.0000E+00  0.0000E+00
     -3.776  0.9134E-01  0.9134E-01  0.2965E-02  0.2965E-02  0.2965E-02  0.2965E-02  0.2965E-02  0.2965E-02  0.0000E+00  0.0000E+00  0.0000E+00  0.0000E+00  0.0000E+00  0.0000E+00  0.0000E+00  0.0000E+00  0.0000E+00  0.0000E+00
     -3.675  0.8612E-01  0.8613E-01  0.2947E-02  0.2947E-02  0.2947E-02  0.2947E-02  0.2947E-02  0.2947E-02  0.0000E+00  0.0000E+00  0.0000E+00  0.0000E+00  0.0000E+00  0.0000E+00  0.0000E+00  0.0000E+00  0.0000E+00  0.0000E+00
     -3.574  0.9655E-01  0.9655E-01  0.3454E-02  0.3455E-02  0.3454E-02  0.3455E-02  0.3454E-02  0.3455E-02  0.0000E+00  0.0000E+00  0.0000E+00  0.0000E+00  0.0000E+00  0.0000E+00  0.0000E+00  0.0000E+00  0.0000E+00  0.0000E+00
     -3.473  0.9020E-01  0.9019E-01  0.3438E-02  0.3438E-02  0.3438E-02  0.3438E-02  0.3438E-02  0.3438E-02  0.0000E+00  0.0000E+00  0.0000E+00  0.0000E+00  0.0000E+00  0.0000E+00  0.0000E+00  0.0000E+00  0.0000E+00  0.0000E+00
     -3.372  0.8240E-01  0.8240E-01  0.3313E-02  0.3313E-02  0.3313E-02  0.3313E-02  0.3313E-02  0.3313E-02  0.0000E+00  0.0000E+00  0.0000E+00  0.0000E+00  0.0000E+00  0.0000E+00  0.0000E+00  0.0000E+00  0.0000E+00  0.0000E+00
     -3.271  0.7675E-01  0.7675E-01  0.3235E-02  0.3235E-02  0.3235E-02  0.3235E-02  0.3235E-02  0.3235E-02  0.0000E+00  0.0000E+00  0.0000E+00  0.0000E+00  0.0000E+00  0.0000E+00  0.0000E+00  0.0000E+00  0.0000E+00  0.0000E+00
     -3.170  0.7244E-01  0.7244E-01  0.3184E-02  0.3184E-02  0.3184E-02  0.3184E-02  0.3184E-02  0.3184E-02  0.0000E+00  0.0000E+00  0.0000E+00  0.0000E+00  0.0000E+00  0.0000E+00  0.0000E+00  0.0000E+00  0.0000E+00  0.0000E+00