 vasp.6.4.2 20Jul23 (build Mar 15 2024 16:31:38) complex                        
  
 executed on             LinuxIFC date 2025.03.19  14:39:50
 running  120 mpi-ranks, on    3 nodes
 distrk:  each k-point on  120 cores,    1 groups
 distr:  one band on NCORE=  10 cores,   12 groups


--------------------------------------------------------------------------------------------------------


 INCAR:
   ALGO = Fast
   EDIFF = 1e-05
   ENAUG = 1360
   ENCUT = 680
   GGA = Ps
   ISMEAR = -5
   ISPIN = 2
   LAECHG = True
   LASPH = True
   LCHARG = True
   LELF = False
   LMIXTAU = True
   LORBIT = 11
   LREAL = False
   LVTOT = True
   LWAVE = True
   MAGMOM = 2*0.6
   NCORE = 10
   NELM = 200
   NSW = 0
   PREC = Accurate
   SIGMA = 0.2

 POTCAR:    PAW_PBE Si 05Jan2001                  
 WARNING: For LVTOT=.TRUE., VASP.5.x writes the TOTAL local potential to the
     file LOCPOT. If you want only the Hartree contributions, use LVHAR=.TRUE.
     instead. 

 POTCAR:    PAW_PBE Si 05Jan2001                  
   VRHFIN =Si: s2p2                                                                                 
   LEXCH  = PE                                                                                      
   EATOM  =   103.0669 eV,    7.5752 Ry                                                             
                                                                                                    
   TITEL  = PAW_PBE Si 05Jan2001                                                                    
   LULTRA =        F    use ultrasoft PP ?                                                          
   IUNSCR =        1    unscreen: 0-lin 1-nonlin 2-no                                               
   RPACOR =    1.500    partial core radius                                                         
   POMASS =   28.085; ZVAL   =    4.000    mass and valenz                                          
   RCORE  =    1.900    outmost cutoff radius                                                       
   RWIGS  =    2.480; RWIGS  =    1.312    wigner-seitz radius (au A)                               
   ENMAX  =  245.345; ENMIN  =  184.009 eV                                                          
   ICORE  =        2    local potential                                                             
   LCOR   =        T    correct aug charges                                                         
   LPAW   =        T    paw PP                                                                      
   EAUG   =  322.069                                                                                
   DEXC   =    0.000                                                                                
   RMAX   =    1.950    core radius for proj-oper                                                   
   RAUG   =    1.300    factor for augmentation sphere                                              
   RDEP   =    1.993    radius for radial grids                                                     
   RDEPT  =    1.837    core radius for aug-charge                                                  
                                                                                                    
   Atomic configuration                                                                             
    6 entries                                                                                       
     n  l   j            E        occ.                                                              
     1  0  0.50     -1785.8828   2.0000                                                             
     2  0  0.50      -139.4969   2.0000                                                             
     2  1  1.50       -95.5546   6.0000                                                             
     3  0  0.50       -10.8127   2.0000                                                             
     3  1  0.50        -4.0811   2.0000                                                             
     3  2  1.50        -4.0817   0.0000                                                             
   Description                                                                                      
     l       E           TYP  RCUT    TYP  RCUT                                                     
     0    -10.8127223     23  1.900                                                                 
     0     -7.6451159     23  1.900                                                                 
     1     -4.0811372     23  1.900                                                                 
     1      2.4879257     23  1.900                                                                 
     2     -4.0817478      7  1.900                                                                 
  local pseudopotential read in
  partial core-charges read in
  partial kinetic energy density read in
  atomic valenz-charges read in
  non local Contribution for L=           0  read in
    real space projection operators read in
  non local Contribution for L=           0  read in
    real space projection operators read in
  non local Contribution for L=           1  read in
    real space projection operators read in
  non local Contribution for L=           1  read in
    real space projection operators read in
    PAW grid and wavefunctions read in
 
   number of l-projection  operators is LMAX  =           4
   number of lm-projection operators is LMMAX =           8
 
 -----------------------------------------------------------------------------
|                                                                             |
|               ----> ADVICE to this user running VASP <----                  |
|                                                                             |
|     You enforced a specific xc type in the INCAR file but a different       |
|     type was found in the POTCAR file.                                      |
|     I HOPE YOU KNOW WHAT YOU ARE DOING!                                     |
|                                                                             |
 -----------------------------------------------------------------------------

  PAW_PBE Si 05Jan2001                  :
 energy of atom  1       EATOM= -103.0669
 kinetic energy error for atom=    0.0003 (will be added to EATOM!!)
 
 
 POSCAR: Si2
  positions in direct lattice
  No initial velocities read in
 exchange correlation table for  LEXCH =       14
   RHO(1)=    0.500       N(1)  =     2000
   RHO(2)=  100.500       N(2)  =     4000
 


--------------------------------------------------------------------------------------------------------


 ion  position               nearest neighbor table
   1  0.875  0.875  0.875-   2 2.36   2 2.36   2 2.36   2 2.36
   2  0.125  0.125  0.125-   1 2.36   1 2.36   1 2.36   1 2.36
 
  LATTYP: Found a face centered cubic cell.
 ALAT       =     5.4437031470
  
  Lattice vectors:
  
 A1 = (   3.3335729972,   0.0000000000,   1.9246389981)
 A2 = (   1.1111909993,   3.1429239987,   1.9246389993)
 A3 = (   0.0000000000,   0.0000000000,   3.8492780000)


Analysis of symmetry for initial positions (statically):
=====================================================================
 Subroutine PRICEL returns:
 Original cell was already a primitive cell.
 

 Routine SETGRP: Setting up the symmetry group for a 
 face centered cubic supercell.


 Subroutine GETGRP returns: Found 48 space group operations
 (whereof 12 operations were pure point group operations)
 out of a pool of 48 trial point group operations.


The static configuration has the point symmetry D_3d.
 The point group associated with its full space group is O_h .


Analysis of symmetry for dynamics (positions and initial velocities):
=====================================================================
 Subroutine PRICEL returns:
 Original cell was already a primitive cell.
 

 Routine SETGRP: Setting up the symmetry group for a 
 face centered cubic supercell.


 Subroutine GETGRP returns: Found 48 space group operations
 (whereof 12 operations were pure point group operations)
 out of a pool of 48 trial point group operations.


The dynamic configuration has the point symmetry D_3d.
 The point group associated with its full space group is O_h .


Analysis of structural, dynamic, and magnetic symmetry:
=====================================================================
 Subroutine PRICEL returns:
 Original cell was already a primitive cell.
 

 Routine SETGRP: Setting up the symmetry group for a 
 face centered cubic supercell.


 Subroutine GETGRP returns: Found 48 space group operations
 (whereof 12 operations were pure point group operations)
 out of a pool of 48 trial point group operations.


The overall configuration has the point symmetry D_3d.
 The point group associated with its full space group is O_h .


 Subroutine INISYM returns: Found 48 space group operations
 (whereof 12 operations are pure point group operations),
 and found     1 'primitive' translations


----------------------------------------------------------------------------------------

                                     Primitive cell                                     

  volume of cell :      40.3295

  direct lattice vectors                    reciprocal lattice vectors
     3.333572997  0.000000000  1.924638998     0.299978432 -0.106058350  0.000000000
     1.111190999  3.142923999  1.924638999     0.000000000  0.318175050  0.000000000
     0.000000000  0.000000000  3.849278000    -0.149989216 -0.106058350  0.259788979

  length of vectors
     3.849278400  3.849279410  3.849278000     0.318175161  0.318175050  0.318175190

  position of ions in fractional coordinates (direct lattice)
     0.875000000  0.875000000  0.875000000
     0.125000000  0.125000000  0.125000000

  ion indices of the primitive-cell ions
   primitive index   ion index
                 1           1
                 2           2

----------------------------------------------------------------------------------------

 
 
 KPOINTS: pymatgen with grid density = 787 / numbe

Automatic generation of k-mesh.
 Grid dimensions read from file:
 generate k-points for:    7    7    7

 Generating k-lattice:

  Cartesian coordinates                     Fractional coordinates (reciprocal lattice)
     0.042854062 -0.015151193  0.000000000     0.142857143  0.000000000  0.000000000
     0.000000000  0.045453579  0.000000000     0.000000000  0.142857143  0.000000000
    -0.021427031 -0.015151193  0.037112711     0.000000000  0.000000000  0.142857143

  Length of vectors
     0.045453594  0.045453579  0.045453599

  Shift w.r.t. Gamma in fractional coordinates (k-lattice)
     0.000000000  0.000000000  0.000000000

 TETIRR: Found     58 inequivalent tetrahedra from     2058
 
 Subroutine IBZKPT returns following result:
 ===========================================
 
 Found     20 irreducible k-points:
 
 Following reciprocal coordinates:
            Coordinates               Weight
  0.000000  0.000000  0.000000      1.000000
  0.142857 -0.000000  0.000000      8.000000
  0.285714 -0.000000  0.000000      8.000000
  0.428571 -0.000000  0.000000      8.000000
  0.142857  0.142857  0.000000      6.000000
  0.285714  0.142857  0.000000     24.000000
  0.428571  0.142857  0.000000     24.000000
 -0.428571  0.142857  0.000000     24.000000
 -0.285714  0.142857  0.000000     24.000000
 -0.142857  0.142857  0.000000     12.000000
  0.285714  0.285714  0.000000      6.000000
  0.428571  0.285714  0.000000     24.000000
 -0.428571  0.285714  0.000000     24.000000
 -0.285714  0.285714  0.000000     12.000000
  0.428571  0.428571  0.000000      6.000000
 -0.428571  0.428571  0.000000     12.000000
  0.428571  0.285714  0.142857     24.000000
 -0.428571  0.285714  0.142857     48.000000
 -0.428571  0.428571  0.142857     24.000000
 -0.285714  0.428571  0.142857     24.000000
 
 Following cartesian coordinates:
            Coordinates               Weight
  0.000000  0.000000  0.000000      1.000000
  0.042854 -0.015151  0.000000      8.000000
  0.085708 -0.030302  0.000000      8.000000
  0.128562 -0.045454  0.000000      8.000000
  0.042854  0.030302  0.000000      6.000000
  0.085708  0.015151  0.000000     24.000000
  0.128562 -0.000000  0.000000     24.000000
 -0.128562  0.090907  0.000000     24.000000
 -0.085708  0.075756  0.000000     24.000000
 -0.042854  0.060605  0.000000     12.000000
  0.085708  0.060605  0.000000      6.000000
  0.128562  0.045454  0.000000     24.000000
 -0.128562  0.136361  0.000000     24.000000
 -0.085708  0.121210  0.000000     12.000000
  0.128562  0.090907  0.000000      6.000000
 -0.128562  0.181814  0.000000     12.000000
  0.107135  0.030302  0.037113     24.000000
 -0.149989  0.121210  0.037113     48.000000
 -0.149989  0.166663  0.037113     24.000000
 -0.107135  0.151512  0.037113     24.000000
 


--------------------------------------------------------------------------------------------------------




 Dimension of arrays:
   k-points           NKPTS =     20   k-points in BZ     NKDIM =     20   number of bands    NBANDS=     12
   number of dos      NEDOS =    301   number of ions     NIONS =      2
   non local maximal  LDIM  =      4   non local SUM 2l+1 LMDIM =      8
   total plane-waves  NPLWV =  46656
   max r-space proj   IRMAX =      1   max aug-charges    IRDMAX=  38875
   dimension x,y,z NGX =    36 NGY =   36 NGZ =   36
   dimension x,y,z NGXF=    72 NGYF=   72 NGZF=   72
   support grid    NGXF=    72 NGYF=   72 NGZF=   72
   ions per type =               2
   NGX,Y,Z   is equivalent  to a cutoff of  15.55, 15.55, 15.55 a.u.
   NGXF,Y,Z  is equivalent  to a cutoff of  31.10, 31.10, 31.10 a.u.

 SYSTEM =  unknown system                          
 POSCAR =  Si2                                     

 Startparameter for this run:
   NWRITE =      2    write-flag & timer
   PREC   = accura    normal or accurate (medium, high low for compatibility)
   ISTART =      0    job   : 0-new  1-cont  2-samecut
   ICHARG =      2    charge: 1-file 2-atom 10-const
   ISPIN  =      2    spin polarized calculation?
   LNONCOLLINEAR =      F non collinear calculations
   LSORBIT =      F    spin-orbit coupling
   INIWAV =      1    electr: 0-lowe 1-rand  2-diag
   LASPH  =      T    aspherical Exc in radial PAW
 Electronic Relaxation 1
   ENCUT  =  680.0 eV  49.98 Ry    7.07 a.u.   8.18  8.18  8.18*2*pi/ulx,y,z
   ENINI  =  680.0     initial cutoff
   ENAUG  = 1360.0 eV  augmentation charge cutoff
   NELM   =    200;   NELMIN=  2; NELMDL= -5     # of ELM steps 
   EDIFF  = 0.1E-04   stopping-criterion for ELM
   LREAL  =      F    real-space projection
   NLSPLINE    = F    spline interpolate recip. space projectors
   LCOMPAT=      F    compatible to vasp.4.4
   GGA_COMPAT  = T    GGA compatible to vasp.4.4-vasp.4.6
   LMAXPAW     = -100 max onsite density
   LMAXMIX     =    2 max onsite mixed and CHGCAR
   VOSKOWN=      0    Vosko Wilk Nusair interpolation
   ROPT   =    0.00000
 Ionic relaxation
   EDIFFG = 0.1E-03   stopping-criterion for IOM
   NSW    =      0    number of steps for IOM
   NBLOCK =      1;   KBLOCK =      1    inner block; outer block 
   IBRION =     -1    ionic relax: 0-MD 1-quasi-New 2-CG
   NFREE  =      0    steps in history (QN), initial steepest desc. (CG)
   ISIF   =      2    stress and relaxation
   IWAVPR =     10    prediction:  0-non 1-charg 2-wave 3-comb
   ISYM   =      2    0-nonsym 1-usesym 2-fastsym
   LCORR  =      T    Harris-Foulkes like correction to forces

   POTIM  = 0.5000    time-step for ionic-motion
   TEIN   =    0.0    initial temperature
   TEBEG  =    0.0;   TEEND  =   0.0 temperature during run
   SMASS  =  -3.00    Nose mass-parameter (am)
   estimated Nose-frequenzy (Omega)   =  0.10E-29 period in steps = 0.13E+47 mass=  -0.339E-27a.u.
   SCALEE = 1.0000    scale energy and forces
   NPACO  =    256;   APACO  = 10.0  distance and # of slots for P.C.
   PSTRESS=    0.0 pullay stress

  Mass of Ions in am
   POMASS =  28.09
  Ionic Valenz
   ZVAL   =   4.00
  Atomic Wigner-Seitz radii
   RWIGS  =  -1.00
  virtual crystal weights 
   VCA    =   1.00
   NELECT =       8.0000    total number of electrons
   NUPDOWN=      -1.0000    fix difference up-down

 DOS related values:
   EMIN   =  10.00;   EMAX   =-10.00  energy-range for DOS
   EFERMI =   0.00;   METHOD = LEGACY      
   ISMEAR =    -5;   SIGMA  =   0.20  broadening in eV -4-tet -1-fermi 0-gaus

 Electronic relaxation 2 (details)
   IALGO  =     68    algorithm
   LDIAG  =      T    sub-space diagonalisation (order eigenvalues)
   LSUBROT=      F    optimize rotation matrix (better conditioning)
   TURBO    =      0    0=normal 1=particle mesh
   IRESTART =      0    0=no restart 2=restart with 2 vectors
   NREBOOT  =      0    no. of reboots
   NMIN     =      0    reboot dimension
   EREF     =   0.00    reference energy to select bands
   IMIX   =      4    mixing-type and parameters
     AMIX     =   0.40;   BMIX     =  1.00
     AMIX_MAG =   1.60;   BMIX_MAG =  1.00
     AMIN     =   0.10
     WC   =   100.;   INIMIX=   1;  MIXPRE=   1;  MAXMIX= -45

 Intra band minimization:
   WEIMIN = 0.0000     energy-eigenvalue tresh-hold
   EBREAK =  0.21E-06  absolut break condition
   DEPER  =   0.30     relativ break condition  

   TIME   =   0.40     timestep for ELM

  volume/ion in A,a.u.               =      20.16       136.08
  Fermi-wavevector in a.u.,A,eV,Ry     =   0.954766  1.804247 12.402783  0.911579
  Thomas-Fermi vector in A             =   2.083543
 
 Write flags
   LWAVE        =      T    write WAVECAR
   LDOWNSAMPLE  =      F    k-point downsampling of WAVECAR
   LCHARG       =      T    write CHGCAR
   LVTOT        =      T    write LOCPOT, total local potential
   LVHAR        =      F    write LOCPOT, Hartree potential only
   LELF         =      F    write electronic localiz. function (ELF)
   LORBIT       =     11    0 simple, 1 ext, 2 COOP (PROOUT), +10 PAW based schemes


 Dipole corrections
   LMONO  =      F    monopole corrections only (constant potential shift)
   LDIPOL =      F    correct potential (dipole corrections)
   IDIPOL =      0    1-x, 2-y, 3-z, 4-all directions 
   EPSILON=  1.0000000 bulk dielectric constant

 Exchange correlation treatment:
   GGA     =    PS    GGA type
   LEXCH   =    14    internal setting for exchange type
   LIBXC   =     F    Libxc                    
   VOSKOWN =     0    Vosko Wilk Nusair interpolation
   LHFCALC =     F    Hartree Fock is set to
   LHFONE  =     F    Hartree Fock one center treatment
   AEXX    =    0.0000 exact exchange contribution

 Linear response parameters
   LEPSILON=     F    determine dielectric tensor
   LRPA    =     F    only Hartree local field effects (RPA)
   LNABLA  =     F    use nabla operator in PAW spheres
   LVEL    =     F    velocity operator in full k-point grid
   CSHIFT  =0.1000    complex shift for real part using Kramers Kronig
   OMEGAMAX=  -1.0    maximum frequency
   DEG_THRESHOLD= 0.2000000E-02 threshold for treating states as degnerate
   RTIME   =   -0.100 relaxation time in fs
  (WPLASMAI=    0.000 imaginary part of plasma frequency in eV, 0.658/RTIME)
   DFIELD  = 0.0000000 0.0000000 0.0000000 field for delta impulse in time
 
  Optional k-point grid parameters
   LKPOINTS_OPT  =     F    use optional k-point grid
   KPOINTS_OPT_MODE=     1    mode for optional k-point grid
 
 Orbital magnetization related:
   ORBITALMAG=     F  switch on orbital magnetization
   LCHIMAG   =     F  perturbation theory with respect to B field
   DQ        =  0.001000  dq finite difference perturbation B field
   LLRAUG    =     F  two centre corrections for induced B field
   LBONE     =     F  B-component reconstruction in AE one-centre
   LVGVCALC  =     T  calculate vGv susceptibility
   LVGVAPPL  =     F  apply vGv susceptibility instead of pGv for G=0

 Random number generation:
   RANDOM_GENERATOR = DEFAULT
   PCG_SEED         = not used


--------------------------------------------------------------------------------------------------------


 Static calculation
 charge density and potential will be updated during run
 spin polarized calculation
 RMM-DIIS sequential band-by-band and
  variant of blocked Davidson during initial phase
 perform sub-space diagonalisation
    before iterative eigenvector-optimisation
 modified Broyden-mixing scheme, WC =      100.0
 initial mixing is a Kerker type mixing with AMIX =  0.4000 and BMIX =      1.0000
 Hartree-type preconditioning will be used
 using additional bands            8
 reciprocal scheme for non local part
 use partial core corrections
 calculate Harris-corrections to forces 
   (improved forces if not selfconsistent)
 use gradient corrections 
 use of overlap-Matrix (Vanderbilt PP)
 Fermi weights with tetrahedron method with Bloechl corrections


--------------------------------------------------------------------------------------------------------


  energy-cutoff  :      680.00
  volume of cell :       40.33
      direct lattice vectors                 reciprocal lattice vectors
     3.333572997  0.000000000  1.924638998     0.299978432 -0.106058350  0.000000000
     1.111190999  3.142923999  1.924638999     0.000000000  0.318175050  0.000000000
     0.000000000  0.000000000  3.849278000    -0.149989216 -0.106058350  0.259788979

  length of vectors
     3.849278400  3.849279410  3.849278000     0.318175161  0.318175050  0.318175190


 
 k-points in units of 2pi/SCALE and weight: pymatgen with grid density = 787 / numbe
   0.00000000  0.00000000  0.00000000       0.003
   0.04285406 -0.01515119  0.00000000       0.023
   0.08570812 -0.03030239  0.00000000       0.023
   0.12856219 -0.04545358  0.00000000       0.023
   0.04285406  0.03030239  0.00000000       0.017
   0.08570812  0.01515119  0.00000000       0.070
   0.12856219 -0.00000000  0.00000000       0.070
  -0.12856219  0.09090716  0.00000000       0.070
  -0.08570812  0.07575596  0.00000000       0.070
  -0.04285406  0.06060477  0.00000000       0.035
   0.08570812  0.06060477  0.00000000       0.017
   0.12856219  0.04545358  0.00000000       0.070
  -0.12856219  0.13636074  0.00000000       0.070
  -0.08570812  0.12120954  0.00000000       0.035
   0.12856219  0.09090716  0.00000000       0.017
  -0.12856219  0.18181431  0.00000000       0.035
   0.10713515  0.03030239  0.03711271       0.070
  -0.14998922  0.12120954  0.03711271       0.140
  -0.14998922  0.16666312  0.03711271       0.070
  -0.10713515  0.15151193  0.03711271       0.070
 
 k-points in reciprocal lattice and weights: pymatgen with grid density = 787 / numbe
   0.00000000  0.00000000  0.00000000       0.003
   0.14285714 -0.00000000  0.00000000       0.023
   0.28571429 -0.00000000  0.00000000       0.023
   0.42857143 -0.00000000  0.00000000       0.023
   0.14285714  0.14285714  0.00000000       0.017
   0.28571429  0.14285714  0.00000000       0.070
   0.42857143  0.14285714  0.00000000       0.070
  -0.42857143  0.14285714  0.00000000       0.070
  -0.28571429  0.14285714  0.00000000       0.070
  -0.14285714  0.14285714  0.00000000       0.035
   0.28571429  0.28571429  0.00000000       0.017
   0.42857143  0.28571429  0.00000000       0.070
  -0.42857143  0.28571429  0.00000000       0.070
  -0.28571429  0.28571429  0.00000000       0.035
   0.42857143  0.42857143  0.00000000       0.017
  -0.42857143  0.42857143  0.00000000       0.035
   0.42857143  0.28571429  0.14285714       0.070
  -0.42857143  0.28571429  0.14285714       0.140
  -0.42857143  0.42857143  0.14285714       0.070
  -0.28571429  0.42857143  0.14285714       0.070
 
 position of ions in fractional coordinates (direct lattice) 
   0.87500000  0.87500000  0.87500000
   0.12500000  0.12500000  0.12500000
 
 position of ions in cartesian coordinates  (Angst):
   3.88916850  2.75005850  6.73623650
   0.55559550  0.39286550  0.96231950
 


--------------------------------------------------------------------------------------------------------


 k-point   1 :   0.0000 0.0000 0.0000  plane waves:    1639
 k-point   2 :   0.1429-0.0000 0.0000  plane waves:    1618
 k-point   3 :   0.2857-0.0000 0.0000  plane waves:    1633
 k-point   4 :   0.4286-0.0000 0.0000  plane waves:    1616
 k-point   5 :   0.1429 0.1429 0.0000  plane waves:    1623
 k-point   6 :   0.2857 0.1429 0.0000  plane waves:    1626
 k-point   7 :   0.4286 0.1429 0.0000  plane waves:    1623
 k-point   8 :  -0.4286 0.1429 0.0000  plane waves:    1626
 k-point   9 :  -0.2857 0.1429 0.0000  plane waves:    1629
 k-point  10 :  -0.1429 0.1429 0.0000  plane waves:    1618
 k-point  11 :   0.2857 0.2857 0.0000  plane waves:    1620
 k-point  12 :   0.4286 0.2857 0.0000  plane waves:    1626
 k-point  13 :  -0.4286 0.2857 0.0000  plane waves:    1623
 k-point  14 :  -0.2857 0.2857 0.0000  plane waves:    1622
 k-point  15 :   0.4286 0.4286 0.0000  plane waves:    1628
 k-point  16 :  -0.4286 0.4286 0.0000  plane waves:    1628
 k-point  17 :   0.4286 0.2857 0.1429  plane waves:    1615
 k-point  18 :  -0.4286 0.2857 0.1429  plane waves:    1624
 k-point  19 :  -0.4286 0.4286 0.1429  plane waves:    1641
 k-point  20 :  -0.2857 0.4286 0.1429  plane waves:    1626

 maximum and minimum number of plane-waves per node :       173      149

 maximum number of plane-waves:      1641
 maximum index in each direction: 
   IXMAX=    8   IYMAX=    8   IZMAX=    8
   IXMIN=   -8   IYMIN=   -8   IZMIN=   -8


 parallel 3D FFT for wavefunctions:
    minimum data exchange during FFTs selected (reduces bandwidth)
 parallel 3D FFT for charge:
    minimum data exchange during FFTs selected (reduces bandwidth)


 total amount of memory used by VASP MPI-rank0    31489. kBytes
=======================================================================

   base      :      30000. kBytes
   nonl-proj :        220. kBytes
   fftplans  :        348. kBytes
   grid      :        800. kBytes
   one-center:          6. kBytes
   wavefun   :        115. kBytes
 
     INWAV:  cpu time      0.0000: real time      0.0001
 Broyden mixing: mesh for mixing (old mesh)
   NGX = 17   NGY = 17   NGZ = 17
  (NGX  = 72   NGY  = 72   NGZ  = 72)
  gives a total of   4913 points

 initial charge density was supplied:
 charge density of overlapping atoms calculated
 number of electron       8.0000000 magnetization       1.2000000
 keeping initial charge density in first step


--------------------------------------------------------------------------------------------------------


 Maximum index for augmentation-charges         1039 (set IRDMAX)


--------------------------------------------------------------------------------------------------------


 First call to EWALD:  gamma=   0.517
 Maximum number of real-space cells 3x 3x 3
 Maximum number of reciprocal cells 3x 3x 3

    FEWALD:  cpu time      0.0024: real time      0.0024


--------------------------------------- Ionic step        1  -------------------------------------------




--------------------------------------- Iteration      1(   1)  ---------------------------------------


    POTLOK:  cpu time      0.0230: real time      0.0257
    SETDIJ:  cpu time      0.1585: real time      0.1595
     EDDAV:  cpu time      0.0997: real time      0.1008
 BZINTS: Fermi energy:    8.849906;    8.000000 electrons
         Band energy: 0.158485E+02;  BLOECHL correction:   -0.124513
       DOS:  cpu time      0.0051: real time      0.0055
    --------------------------------------------
      LOOP:  cpu time      0.2863: real time      0.2915

 eigenvalue-minimisations  :   960
 total energy-change (2. order) : 0.2407587E+01  (-0.3669650E+03)
 number of electron       8.0000000 magnetization       1.2000000
 augmentation part        8.0000000 magnetization       1.2000000

 Free energy of the ion-electron system (eV)
  ---------------------------------------------------
  alpha Z        PSCENC =         3.33880742
  Ewald energy   TEWEN  =      -227.98820653
  -Hartree energ DENC   =       -11.11484529
  -exchange      EXHF   =         0.00000000
  -V(xc)+E(xc)   XCENC  =       -17.40760180
  PAW double counting   =       174.89845602     -140.31916047
  entropy T*S    EENTRO =         0.00000000
  eigenvalues    EBANDS =        15.84853740
  atomic energy  EATOM  =       205.15160006
  Solvation  Ediel_sol  =         0.00000000
  ---------------------------------------------------
  free energy    TOTEN  =         2.40758680 eV

  energy without entropy =        2.40758680  energy(sigma->0) =        2.40758680


--------------------------------------------------------------------------------------------------------




--------------------------------------- Iteration      1(   2)  ---------------------------------------


     EDDAV:  cpu time      0.1193: real time      0.1219
 BZINTS: Fermi energy:    5.677081;    8.000000 electrons
         Band energy: 0.204735E+01;  BLOECHL correction:    0.000000
       DOS:  cpu time      0.0013: real time      0.0013
    --------------------------------------------
      LOOP:  cpu time      0.1206: real time      0.1231

 eigenvalue-minimisations  :  1308
 total energy-change (2. order) :-0.1380119E+02  (-0.1374483E+02)
 number of electron       8.0000000 magnetization       1.2000000
 augmentation part        8.0000000 magnetization       1.2000000

 Free energy of the ion-electron system (eV)
  ---------------------------------------------------
  alpha Z        PSCENC =         3.33880742
  Ewald energy   TEWEN  =      -227.98820653
  -Hartree energ DENC   =       -11.11484529
  -exchange      EXHF   =         0.00000000
  -V(xc)+E(xc)   XCENC  =       -17.40760180
  PAW double counting   =       174.89845602     -140.31916047
  entropy T*S    EENTRO =         0.00000000
  eigenvalues    EBANDS =         2.04734659
  atomic energy  EATOM  =       205.15160006
  Solvation  Ediel_sol  =         0.00000000
  ---------------------------------------------------
  free energy    TOTEN  =       -11.39360401 eV

  energy without entropy =      -11.39360401  energy(sigma->0) =      -11.39360401


--------------------------------------------------------------------------------------------------------




--------------------------------------- Iteration      1(   3)  ---------------------------------------


     EDDAV:  cpu time      0.1259: real time      0.1408
 BZINTS: Fermi energy:    5.580707;    8.000000 electrons
         Band energy: 0.192543E+01;  BLOECHL correction:    0.000000
       DOS:  cpu time      0.0011: real time      0.0012
    --------------------------------------------
      LOOP:  cpu time      0.1270: real time      0.1421

 eigenvalue-minimisations  :  1296
 total energy-change (2. order) :-0.1219195E+00  (-0.1219195E+00)
 number of electron       8.0000000 magnetization       1.2000000
 augmentation part        8.0000000 magnetization       1.2000000

 Free energy of the ion-electron system (eV)
  ---------------------------------------------------
  alpha Z        PSCENC =         3.33880742
  Ewald energy   TEWEN  =      -227.98820653
  -Hartree energ DENC   =       -11.11484529
  -exchange      EXHF   =         0.00000000
  -V(xc)+E(xc)   XCENC  =       -17.40760180
  PAW double counting   =       174.89845602     -140.31916047
  entropy T*S    EENTRO =         0.00000000
  eigenvalues    EBANDS =         1.92542710
  atomic energy  EATOM  =       205.15160006
  Solvation  Ediel_sol  =         0.00000000
  ---------------------------------------------------
  free energy    TOTEN  =       -11.51552350 eV

  energy without entropy =      -11.51552350  energy(sigma->0) =      -11.51552350


--------------------------------------------------------------------------------------------------------




--------------------------------------- Iteration      1(   4)  ---------------------------------------


     EDDAV:  cpu time      0.1314: real time      0.1430
 BZINTS: Fermi energy:    5.545443;    8.000000 electrons
         Band energy: 0.192508E+01;  BLOECHL correction:    0.000000
       DOS:  cpu time      0.0011: real time      0.0011
    --------------------------------------------
      LOOP:  cpu time      0.1326: real time      0.1442

 eigenvalue-minimisations  :  1512
 total energy-change (2. order) :-0.3484843E-03  (-0.3484843E-03)
 number of electron       8.0000000 magnetization       1.2000000
 augmentation part        8.0000000 magnetization       1.2000000

 Free energy of the ion-electron system (eV)
  ---------------------------------------------------
  alpha Z        PSCENC =         3.33880742
  Ewald energy   TEWEN  =      -227.98820653
  -Hartree energ DENC   =       -11.11484529
  -exchange      EXHF   =         0.00000000
  -V(xc)+E(xc)   XCENC  =       -17.40760180
  PAW double counting   =       174.89845602     -140.31916047
  entropy T*S    EENTRO =         0.00000000
  eigenvalues    EBANDS =         1.92507861
  atomic energy  EATOM  =       205.15160006
  Solvation  Ediel_sol  =         0.00000000
  ---------------------------------------------------
  free energy    TOTEN  =       -11.51587199 eV

  energy without entropy =      -11.51587199  energy(sigma->0) =      -11.51587199


--------------------------------------------------------------------------------------------------------




--------------------------------------- Iteration      1(   5)  ---------------------------------------


     EDDAV:  cpu time      0.1007: real time      0.1149
 BZINTS: Fermi energy:    5.542634;    8.000000 electrons
         Band energy: 0.192508E+01;  BLOECHL correction:    0.000000
       DOS:  cpu time      0.0011: real time      0.0011
    CHARGE:  cpu time      0.0171: real time      0.0175
    MIXING:  cpu time      0.0060: real time      0.0065
    --------------------------------------------
      LOOP:  cpu time      0.1249: real time      0.1400

 eigenvalue-minimisations  :  1260
 total energy-change (2. order) :-0.3936098E-06  (-0.3936098E-06)
 number of electron       8.0000000 magnetization      -0.3357396
 augmentation part       -0.4674293 magnetization      -0.3340253

 Broyden mixing:
  rms(total) = 0.53835E+00    rms(broyden)= 0.53835E+00
  rms(prec ) = 0.96229E+00
  weight for this iteration     100.00

 Free energy of the ion-electron system (eV)
  ---------------------------------------------------
  alpha Z        PSCENC =         3.33880742
  Ewald energy   TEWEN  =      -227.98820653
  -Hartree energ DENC   =       -11.11484529
  -exchange      EXHF   =         0.00000000
  -V(xc)+E(xc)   XCENC  =       -17.40760180
  PAW double counting   =       174.89845602     -140.31916047
  entropy T*S    EENTRO =         0.00000000
  eigenvalues    EBANDS =         1.92507822
  atomic energy  EATOM  =       205.15160006
  Solvation  Ediel_sol  =         0.00000000
  ---------------------------------------------------
  free energy    TOTEN  =       -11.51587238 eV

  energy without entropy =      -11.51587238  energy(sigma->0) =      -11.51587238


--------------------------------------------------------------------------------------------------------




--------------------------------------- Iteration      1(   6)  ---------------------------------------


    POTLOK:  cpu time      0.0116: real time      0.0249
    SETDIJ:  cpu time      0.1541: real time      0.1545
    EDDIAG:  cpu time      0.1107: real time      0.1137
  RMM-DIIS:  cpu time      0.4114: real time      0.4128
    ORTHCH:  cpu time      0.0052: real time      0.0052
 BZINTS: Fermi energy:    5.505108;    8.000000 electrons
         Band energy: 0.328105E+01;  BLOECHL correction:    0.000000
       DOS:  cpu time      0.0011: real time      0.0011
    CHARGE:  cpu time      0.0121: real time      0.0122
    MIXING:  cpu time      0.0018: real time      0.1604
    --------------------------------------------
      LOOP:  cpu time      0.7081: real time      0.8847

 eigenvalue-minimisations  :   960
 total energy-change (2. order) :-0.2216622E-01  (-0.4812003E-02)
 number of electron       8.0000000 magnetization       0.4445600
 augmentation part       -0.4618993 magnetization       0.4454010

 Broyden mixing:
  rms(total) = 0.30520E+00    rms(broyden)= 0.30520E+00
  rms(prec ) = 0.55194E+00
  weight for this iteration     100.00

 eigenvalues of (default mixing * dielectric matrix)
  average eigenvalue GAMMA=   0.9672
  0.9672

 Free energy of the ion-electron system (eV)
  ---------------------------------------------------
  alpha Z        PSCENC =         3.33880742
  Ewald energy   TEWEN  =      -227.98820653
  -Hartree energ DENC   =       -12.54848039
  -exchange      EXHF   =         0.00000000
  -V(xc)+E(xc)   XCENC  =       -17.25088678
  PAW double counting   =       381.03003014     -346.55195207
  entropy T*S    EENTRO =         0.00000000
  eigenvalues    EBANDS =         3.28104954
  atomic energy  EATOM  =       205.15160006
  Solvation  Ediel_sol  =         0.00000000
  ---------------------------------------------------
  free energy    TOTEN  =       -11.53803860 eV

  energy without entropy =      -11.53803860  energy(sigma->0) =      -11.53803860


--------------------------------------------------------------------------------------------------------




--------------------------------------- Iteration      1(   7)  ---------------------------------------


    POTLOK:  cpu time      0.0116: real time      0.0252
    SETDIJ:  cpu time      0.1537: real time      0.1541
    EDDIAG:  cpu time      0.0771: real time      0.0773
  RMM-DIIS:  cpu time      0.0417: real time      0.0418
    ORTHCH:  cpu time      0.0049: real time      0.0049
 BZINTS: Fermi energy:    5.773165;    8.000000 electrons
         Band energy: 0.482983E+01;  BLOECHL correction:    0.000000
       DOS:  cpu time      0.0011: real time      0.0011
    CHARGE:  cpu time      0.0119: real time      0.0120
    MIXING:  cpu time      0.0005: real time      0.0440
    --------------------------------------------
      LOOP:  cpu time      0.3025: real time      0.3603

 eigenvalue-minimisations  :  1008
 total energy-change (2. order) : 0.7905392E-01  (-0.5237469E-02)
 number of electron       8.0000000 magnetization       0.0326572
 augmentation part       -0.4572034 magnetization       0.0329118

 Broyden mixing:
  rms(total) = 0.13935E+00    rms(broyden)= 0.13935E+00
  rms(prec ) = 0.17856E+00
  weight for this iteration     100.00

 eigenvalues of (default mixing * dielectric matrix)
  average eigenvalue GAMMA=   1.4447
  0.7324  2.1569

 Free energy of the ion-electron system (eV)
  ---------------------------------------------------
  alpha Z        PSCENC =         3.33880742
  Ewald energy   TEWEN  =      -227.98820653
  -Hartree energ DENC   =       -14.20485208
  -exchange      EXHF   =         0.00000000
  -V(xc)+E(xc)   XCENC  =       -16.96915249
  PAW double counting   =       721.51732668     -687.13433804
  entropy T*S    EENTRO =         0.00000000
  eigenvalues    EBANDS =         4.82983030
  atomic energy  EATOM  =       205.15160006
  Solvation  Ediel_sol  =         0.00000000
  ---------------------------------------------------
  free energy    TOTEN  =       -11.45898468 eV

  energy without entropy =      -11.45898468  energy(sigma->0) =      -11.45898468


--------------------------------------------------------------------------------------------------------




--------------------------------------- Iteration      1(   8)  ---------------------------------------


    POTLOK:  cpu time      0.0120: real time      0.0259
    SETDIJ:  cpu time      0.1552: real time      0.1556
    EDDIAG:  cpu time      0.0748: real time      0.0750
  RMM-DIIS:  cpu time      0.0147: real time      0.0148
    ORTHCH:  cpu time      0.0049: real time      0.0049
 BZINTS: Fermi energy:    5.825829;    8.000000 electrons
         Band energy: 0.527240E+01;  BLOECHL correction:    0.000000
       DOS:  cpu time      0.0011: real time      0.0011
    CHARGE:  cpu time      0.0125: real time      0.0126
    MIXING:  cpu time      0.0003: real time      0.0003
    --------------------------------------------
      LOOP:  cpu time      0.2757: real time      0.2902

 eigenvalue-minimisations  :   997
 total energy-change (2. order) :-0.2369875E-01  (-0.1058053E-02)
 number of electron       8.0000000 magnetization      -0.0078655
 augmentation part       -0.4563041 magnetization      -0.0074570

 Broyden mixing:
  rms(total) = 0.33927E-01    rms(broyden)= 0.33927E-01
  rms(prec ) = 0.42934E-01
  weight for this iteration     100.00

 eigenvalues of (default mixing * dielectric matrix)
  average eigenvalue GAMMA=   1.2887
  2.4615  0.7855  0.6190

 Free energy of the ion-electron system (eV)
  ---------------------------------------------------
  alpha Z        PSCENC =         3.33880742
  Ewald energy   TEWEN  =      -227.98820653
  -Hartree energ DENC   =       -14.72400189
  -exchange      EXHF   =         0.00000000
  -V(xc)+E(xc)   XCENC  =       -16.88859532
  PAW double counting   =       855.50057257     -821.14526229
  entropy T*S    EENTRO =         0.00000000
  eigenvalues    EBANDS =         5.27240255
  atomic energy  EATOM  =       205.15160006
  Solvation  Ediel_sol  =         0.00000000
  ---------------------------------------------------
  free energy    TOTEN  =       -11.48268343 eV

  energy without entropy =      -11.48268343  energy(sigma->0) =      -11.48268343


--------------------------------------------------------------------------------------------------------




--------------------------------------- Iteration      1(   9)  ---------------------------------------


    POTLOK:  cpu time      0.0093: real time      0.0243
    SETDIJ:  cpu time      0.1539: real time      0.1543
    EDDIAG:  cpu time      0.0742: real time      0.0744
  RMM-DIIS:  cpu time      0.0181: real time      0.0182
    ORTHCH:  cpu time      0.0050: real time      0.0050
 BZINTS: Fermi energy:    5.727880;    8.000000 electrons
         Band energy: 0.526580E+01;  BLOECHL correction:   -0.000000
       DOS:  cpu time      0.0011: real time      0.0011
    CHARGE:  cpu time      0.0120: real time      0.0120
    MIXING:  cpu time      0.0003: real time      0.0003
    --------------------------------------------
      LOOP:  cpu time      0.2739: real time      0.2895

 eigenvalue-minimisations  :  1079
 total energy-change (2. order) :-0.4128853E-04  (-0.7692716E-04)
 number of electron       8.0000000 magnetization       0.0002475
 augmentation part       -0.4567468 magnetization       0.0003660

 Broyden mixing:
  rms(total) = 0.10909E-01    rms(broyden)= 0.10909E-01
  rms(prec ) = 0.21338E-01
  weight for this iteration     100.00

 eigenvalues of (default mixing * dielectric matrix)
  average eigenvalue GAMMA=   1.2357
  2.4000  1.1138  0.7773  0.6515

 Free energy of the ion-electron system (eV)
  ---------------------------------------------------
  alpha Z        PSCENC =         3.33880742
  Ewald energy   TEWEN  =      -227.98820653
  -Hartree energ DENC   =       -14.72491385
  -exchange      EXHF   =         0.00000000
  -V(xc)+E(xc)   XCENC  =       -16.88425613
  PAW double counting   =       863.06319469     -828.70474811
  entropy T*S    EENTRO =         0.00000000
  eigenvalues    EBANDS =         5.26579773
  atomic energy  EATOM  =       205.15160006
  Solvation  Ediel_sol  =         0.00000000
  ---------------------------------------------------
  free energy    TOTEN  =       -11.48272472 eV

  energy without entropy =      -11.48272472  energy(sigma->0) =      -11.48272472


--------------------------------------------------------------------------------------------------------




--------------------------------------- Iteration      1(  10)  ---------------------------------------


    POTLOK:  cpu time      0.0101: real time      0.0241
    SETDIJ:  cpu time      0.1535: real time      0.1541
    EDDIAG:  cpu time      0.0739: real time      0.0741
  RMM-DIIS:  cpu time      0.0172: real time      0.0172
    ORTHCH:  cpu time      0.0049: real time      0.0049
 BZINTS: Fermi energy:    5.724954;    8.000000 electrons
         Band energy: 0.523220E+01;  BLOECHL correction:    0.000000
       DOS:  cpu time      0.0011: real time      0.0011
    CHARGE:  cpu time      0.0121: real time      0.0122
    MIXING:  cpu time      0.0003: real time      0.0003
    --------------------------------------------
      LOOP:  cpu time      0.2731: real time      0.2879

 eigenvalue-minimisations  :  1044
 total energy-change (2. order) :-0.1335339E-03  (-0.2284458E-04)
 number of electron       8.0000000 magnetization       0.0006750
 augmentation part       -0.4572048 magnetization       0.0006582

 Broyden mixing:
  rms(total) = 0.54260E-02    rms(broyden)= 0.54260E-02
  rms(prec ) = 0.76589E-02
  weight for this iteration     100.00

 eigenvalues of (default mixing * dielectric matrix)
  average eigenvalue GAMMA=   1.3494
  2.2872  1.8542  1.1829  0.7774  0.6453

 Free energy of the ion-electron system (eV)
  ---------------------------------------------------
  alpha Z        PSCENC =         3.33880742
  Ewald energy   TEWEN  =      -227.98820653
  -Hartree energ DENC   =       -14.70197044
  -exchange      EXHF   =         0.00000000
  -V(xc)+E(xc)   XCENC  =       -16.88107956
  PAW double counting   =       864.83916177     -830.47336761
  entropy T*S    EENTRO =         0.00000000
  eigenvalues    EBANDS =         5.23219664
  atomic energy  EATOM  =       205.15160006
  Solvation  Ediel_sol  =         0.00000000
  ---------------------------------------------------
  free energy    TOTEN  =       -11.48285825 eV

  energy without entropy =      -11.48285825  energy(sigma->0) =      -11.48285825


--------------------------------------------------------------------------------------------------------




--------------------------------------- Iteration      1(  11)  ---------------------------------------


    POTLOK:  cpu time      0.0103: real time      0.0256
    SETDIJ:  cpu time      0.1538: real time      0.1542
    EDDIAG:  cpu time      0.0762: real time      0.0764
  RMM-DIIS:  cpu time      0.0180: real time      0.0180
    ORTHCH:  cpu time      0.0052: real time      0.0052
 BZINTS: Fermi energy:    5.726200;    8.000000 electrons
         Band energy: 0.524135E+01;  BLOECHL correction:    0.000000
       DOS:  cpu time      0.0011: real time      0.0012
    CHARGE:  cpu time      0.0138: real time      0.0139
    MIXING:  cpu time      0.0006: real time      0.0184
    --------------------------------------------
      LOOP:  cpu time      0.2790: real time      0.3128

 eigenvalue-minimisations  :  1061
 total energy-change (2. order) :-0.3600657E-04  (-0.9770326E-05)
 number of electron       8.0000000 magnetization       0.0000571
 augmentation part       -0.4572791 magnetization       0.0001193

 Broyden mixing:
  rms(total) = 0.39008E-02    rms(broyden)= 0.39008E-02
  rms(prec ) = 0.42146E-02
  weight for this iteration     100.00

 eigenvalues of (default mixing * dielectric matrix)
  average eigenvalue GAMMA=   1.3997
  2.3990  2.3990  1.5588  0.7794  0.6310  0.6310

 Free energy of the ion-electron system (eV)
  ---------------------------------------------------
  alpha Z        PSCENC =         3.33880742
  Ewald energy   TEWEN  =      -227.98820653
  -Hartree energ DENC   =       -14.71527894
  -exchange      EXHF   =         0.00000000
  -V(xc)+E(xc)   XCENC  =       -16.87771667
  PAW double counting   =       863.45002249     -829.08346967
  entropy T*S    EENTRO =         0.00000000
  eigenvalues    EBANDS =         5.24134758
  atomic energy  EATOM  =       205.15160006
  Solvation  Ediel_sol  =         0.00000000
  ---------------------------------------------------
  free energy    TOTEN  =       -11.48289426 eV

  energy without entropy =      -11.48289426  energy(sigma->0) =      -11.48289426


--------------------------------------------------------------------------------------------------------




--------------------------------------- Iteration      1(  12)  ---------------------------------------


    POTLOK:  cpu time      0.0126: real time      0.0255
    SETDIJ:  cpu time      0.1546: real time      0.1550
    EDDIAG:  cpu time      0.0739: real time      0.0740
  RMM-DIIS:  cpu time      0.0203: real time      0.0204
    ORTHCH:  cpu time      0.0050: real time      0.0050
 BZINTS: Fermi energy:    5.726666;    8.000000 electrons
         Band energy: 0.524379E+01;  BLOECHL correction:    0.000000
       DOS:  cpu time      0.0011: real time      0.0011
    --------------------------------------------
      LOOP:  cpu time      0.2675: real time      0.2810

 eigenvalue-minimisations  :   942
 total energy-change (2. order) :-0.5955135E-05  (-0.1714306E-05)
 number of electron       8.0000000 magnetization       0.0000571
 augmentation part       -0.4572791 magnetization       0.0001193

 Free energy of the ion-electron system (eV)
  ---------------------------------------------------
  alpha Z        PSCENC =         3.33880742
  Ewald energy   TEWEN  =      -227.98820653
  -Hartree energ DENC   =       -14.71820837
  -exchange      EXHF   =         0.00000000
  -V(xc)+E(xc)   XCENC  =       -16.87729464
  PAW double counting   =       860.74095281     -826.37433776
  entropy T*S    EENTRO =         0.00000000
  eigenvalues    EBANDS =         5.24378679
  atomic energy  EATOM  =       205.15160006
  Solvation  Ediel_sol  =         0.00000000
  ---------------------------------------------------
  free energy    TOTEN  =       -11.48290021 eV

  energy without entropy =      -11.48290021  energy(sigma->0) =      -11.48290021


--------------------------------------------------------------------------------------------------------




 average (electrostatic) potential at core
  the test charge radii are     0.9892
  (the norm of the test charge is              1.0000)
       1 -83.1125       2 -83.1125
 
 
 
 E-fermi :   5.7267     XC(G=0):  -9.5249     alpha+bet :-11.8943

 Fermi energy:         5.7266655932

 spin component 1

 k-point     1 :       0.0000    0.0000    0.0000
  band No.  band energies     occupation 
      1      -6.2207      1.00000
      2       5.7213      1.00000
      3       5.7213      1.00000
      4       5.7214      1.00000
      5       8.2337      0.00000
      6       8.2337      0.00000
      7       8.2337      0.00000
      8       8.9639      0.00000
      9      13.4005      0.00000
     10      13.4035      0.00000
     11      13.4035      0.00000
     12      16.7908      0.00000

 k-point     2 :       0.1429   -0.0000    0.0000
  band No.  band energies     occupation 
      1      -5.9552      1.00000
      2       3.7766      1.00000
      3       5.3622      1.00000
      4       5.3622      1.00000
      5       8.0801      0.00000
      6       8.7560      0.00000
      7       8.7560      0.00000
      8      10.6406      0.00000
      9      12.8214      0.00000
     10      12.8214      0.00000
     11      14.3792      0.00000
     12      16.1463      0.00000

 k-point     3 :       0.2857   -0.0000    0.0000
  band No.  band energies     occupation 
      1      -5.1894      1.00000
      2       1.1556      1.00000
      3       4.8471      1.00000
      4       4.8471      1.00000
      5       7.5306      0.00000
      6       9.1990      0.00000
      7       9.1991      0.00000
      8      13.0390      0.00000
      9      13.1067      0.00000
     10      13.1067      0.00000
     11      14.3952      0.00000
     12      18.1141      0.00000

 k-point     4 :       0.4286   -0.0000    0.0000
  band No.  band energies     occupation 
      1      -4.1463      1.00000
      2      -0.8779      1.00000
      3       4.5600      1.00000
      4       4.5600      1.00000
      5       7.2027      0.00000
      6       9.0366      0.00000
      7       9.0367      0.00000
      8      13.2881      0.00000
      9      15.1282      0.00000
     10      15.1282      0.00000
     11      16.1081      0.00000
     12      18.1903      0.00000

 k-point     5 :       0.1429    0.1429    0.0000
  band No.  band energies     occupation 
      1      -5.8654      1.00000
      2       4.0812      1.00000
      3       4.7421      1.00000
      4       4.7421      1.00000
      5       7.5273      0.00000
      6       9.6435      0.00000
      7       9.6435      0.00000
      8      10.0471      0.00000
      9      12.0959      0.00000
     10      13.7969      0.00000
     11      14.7994      0.00000
     12      17.4105      0.00000

 k-point     6 :       0.2857    0.1429    0.0000
  band No.  band energies     occupation 
      1      -5.2592      1.00000
      2       1.9552      1.00000
      3       4.1535      1.00000
      4       4.1999      1.00000
      5       7.7177      0.00000
      6       9.5596      0.00000
      7      10.1830      0.00000
      8      10.4205      0.00000
      9      13.7896      0.00000
     10      14.1669      0.00000
     11      15.7236      0.00000
     12      17.5999      0.00000

 k-point     7 :       0.4286    0.1429    0.0000
  band No.  band energies     occupation 
      1      -4.2495      1.00000
      2      -0.2324      1.00000
      3       3.4617      1.00000
      4       4.0131      1.00000
      5       7.7738      0.00000
      6       9.4708      0.00000
      7      10.1915      0.00000
      8      11.4083      0.00000
      9      14.9989      0.00000
     10      15.8935      0.00000
     11      16.5284      0.00000
     12      17.8751      0.00000

 k-point     8 :      -0.4286    0.1429    0.0000
  band No.  band energies     occupation 
      1      -3.6872      1.00000
      2      -1.1008      1.00000
      3       3.0456      1.00000
      4       4.2135      1.00000
      5       7.8756      0.00000
      6       9.3702      0.00000
      7       9.7913      0.00000
      8      13.7592      0.00000
      9      14.2911      0.00000
     10      14.6930      0.00000
     11      16.5411      0.00000
     12      18.7916      0.00000

 k-point     9 :      -0.2857    0.1429    0.0000
  band No.  band energies     occupation 
      1      -4.6186      1.00000
      2       0.4491      1.00000
      3       3.0469      1.00000
      4       4.7300      1.00000
      5       8.2894      0.00000
      6       9.5595      0.00000
      7       9.5699      0.00000
      8      12.2619      0.00000
      9      12.3977      0.00000
     10      15.3786      0.00000
     11      16.8182      0.00000
     12      17.8101      0.00000

 k-point    10 :      -0.1429    0.1429    0.0000
  band No.  band energies     occupation 
      1      -5.5195      1.00000
      2       2.5760      1.00000
      3       3.7354      1.00000
      4       5.3254      1.00000
      5       8.7109      0.00000
      6       8.9621      0.00000
      7       9.2024      0.00000
      8      11.2500      0.00000
      9      11.8535      0.00000
     10      14.1697      0.00000
     11      15.5885      0.00000
     12      16.8334      0.00000

 k-point    11 :       0.2857    0.2857    0.0000
  band No.  band energies     occupation 
      1      -4.8161      1.00000
      2       1.5611      1.00000
      3       3.5762      1.00000
      4       3.5762      1.00000
      5       6.5565      0.00000
      6       8.2205      0.00000
      7      12.0528      0.00000
      8      12.0528      0.00000
      9      14.4171      0.00000
     10      14.9742      0.00000
     11      17.6547      0.00000
     12      18.9645      0.00000

 k-point    12 :       0.4286    0.2857    0.0000
  band No.  band energies     occupation 
      1      -3.9139      1.00000
      2       0.0604      1.00000
      3       2.5820      1.00000
      4       3.3172      1.00000
      5       6.8351      0.00000
      6       8.3204      0.00000
      7      12.2633      0.00000
      8      12.4354      0.00000
      9      16.5548      0.00000
     10      16.8796      0.00000
     11      17.2324      0.00000
     12      17.8574      0.00000

 k-point    13 :      -0.4286    0.2857    0.0000
  band No.  band energies     occupation 
      1      -2.9921      1.00000
      2      -1.1224      1.00000
      3       1.6198      1.00000
      4       3.4874      1.00000
      5       7.0711      0.00000
      6      10.5673      0.00000
      7      11.9307      0.00000
      8      11.9948      0.00000
      9      14.6668      0.00000
     10      14.7051      0.00000
     11      18.9098      0.00000
     12      19.4023      0.00000

 k-point    14 :      -0.2857    0.2857    0.0000
  band No.  band energies     occupation 
      1      -3.6441      1.00000
      2      -0.3700      1.00000
      3       1.5430      1.00000
      4       4.0391      1.00000
      5       7.6869      0.00000
      6      11.1156      0.00000
      7      11.4191      0.00000
      8      12.2306      0.00000
      9      12.5274      0.00000
     10      13.7767      0.00000
     11      18.8673      0.00000
     12      19.4520      0.00000

 k-point    15 :       0.4286    0.4286    0.0000
  band No.  band energies     occupation 
      1      -3.1312      1.00000
      2      -0.9342      1.00000
      3       2.9451      1.00000
      4       2.9451      1.00000
      5       6.1882      0.00000
      6       6.6977      0.00000
      7      14.6870      0.00000
      8      14.6870      0.00000
      9      16.9253      0.00000
     10      17.3653      0.00000
     11      17.6900      0.00000
     12      17.6900      0.00000

 k-point    16 :      -0.4286    0.4286    0.0000
  band No.  band energies     occupation 
      1      -2.1788      1.00000
      2      -1.8933      1.00000
      3       2.0310      1.00000
      4       3.0071      1.00000
      5       6.4871      0.00000
      6       7.7617      0.00000
      7      14.4626      0.00000
      8      14.8904      0.00000
      9      15.0831      0.00000
     10      15.3781      0.00000
     11      19.3795      0.00000
     12      19.3981      0.00000

 k-point    17 :       0.4286    0.2857    0.1429
  band No.  band energies     occupation 
      1      -4.5070      1.00000
      2       0.8235      1.00000
      3       2.5823      1.00000
      4       3.9235      1.00000
      5       8.2251      0.00000
      6       9.4539      0.00000
      7       9.7877      0.00000
      8      11.7988      0.00000
      9      13.8891      0.00000
     10      16.5433      0.00000
     11      17.0387      0.00000
     12      18.0856      0.00000

 k-point    18 :      -0.4286    0.2857    0.1429
  band No.  band energies     occupation 
      1      -3.4628      1.00000
      2      -0.7120      1.00000
      3       2.0096      1.00000
      4       3.3809      1.00000
      5       8.7007      0.00000
      6       9.1206      0.00000
      7      11.1003      0.00000
      8      12.2443      0.00000
      9      13.9562      0.00000
     10      15.6173      0.00000
     11      17.7491      0.00000
     12      19.0102      0.00000

 k-point    19 :      -0.4286    0.4286    0.1429
  band No.  band energies     occupation 
      1      -2.9244      1.00000
      2      -1.0182      1.00000
      3       2.0979      1.00000
      4       2.5122      1.00000
      5       7.8418      0.00000
      6       8.2000      0.00000
      7      11.7935      0.00000
      8      14.3012      0.00000
      9      14.7826      0.00000
     10      16.6939      0.00000
     11      18.0934      0.00000
     12      19.6321      0.00000

 k-point    20 :      -0.2857    0.4286    0.1429
  band No.  band energies     occupation 
      1      -2.4841      1.00000
      2      -1.4161      1.00000
      3       1.4491      1.00000
      4       2.6043      1.00000
      5       8.3656      0.00000
      6      10.4640      0.00000
      7      11.2915      0.00000
      8      11.4195      0.00000
      9      14.7151      0.00000
     10      15.8801      0.00000
     11      18.8119      0.00000
     12      20.0857      0.00000
 Fermi energy:         5.7266655932

 spin component 2

 k-point     1 :       0.0000    0.0000    0.0000
  band No.  band energies     occupation 
      1      -6.2207      1.00000
      2       5.7210      1.00000
      3       5.7210      1.00000
      4       5.7210      1.00000
      5       8.2343      0.00000
      6       8.2343      0.00000
      7       8.2343      0.00000
      8       8.9634      0.00000
      9      13.3987      0.00000
     10      13.4042      0.00000
     11      13.4042      0.00000
     12      16.7917      0.00000

 k-point     2 :       0.1429   -0.0000    0.0000
  band No.  band energies     occupation 
      1      -5.9552      1.00000
      2       3.7765      1.00000
      3       5.3619      1.00000
      4       5.3619      1.00000
      5       8.0802      0.00000
      6       8.7565      0.00000
      7       8.7565      0.00000
      8      10.6401      0.00000
      9      12.8222      0.00000
     10      12.8222      0.00000
     11      14.3777      0.00000
     12      16.1462      0.00000

 k-point     3 :       0.2857   -0.0000    0.0000
  band No.  band energies     occupation 
      1      -5.1894      1.00000
      2       1.1556      1.00000
      3       4.8469      1.00000
      4       4.8469      1.00000
      5       7.5305      0.00000
      6       9.1996      0.00000
      7       9.1996      0.00000
      8      13.0382      0.00000
      9      13.1074      0.00000
     10      13.1074      0.00000
     11      14.3944      0.00000
     12      18.1129      0.00000

 k-point     4 :       0.4286   -0.0000    0.0000
  band No.  band energies     occupation 
      1      -4.1463      1.00000
      2      -0.8779      1.00000
      3       4.5599      1.00000
      4       4.5599      1.00000
      5       7.2025      0.00000
      6       9.0374      0.00000
      7       9.0374      0.00000
      8      13.2871      0.00000
      9      15.1286      0.00000
     10      15.1286      0.00000
     11      16.1069      0.00000
     12      18.1907      0.00000

 k-point     5 :       0.1429    0.1429    0.0000
  band No.  band energies     occupation 
      1      -5.8654      1.00000
      2       4.0809      1.00000
      3       4.7421      1.00000
      4       4.7421      1.00000
      5       7.5276      0.00000
      6       9.6437      0.00000
      7       9.6437      0.00000
      8      10.0469      0.00000
      9      12.0964      0.00000
     10      13.7976      0.00000
     11      14.7979      0.00000
     12      17.4115      0.00000

 k-point     6 :       0.2857    0.1429    0.0000
  band No.  band energies     occupation 
      1      -5.2592      1.00000
      2       1.9551      1.00000
      3       4.1534      1.00000
      4       4.1999      1.00000
      5       7.7179      0.00000
      6       9.5598      0.00000
      7      10.1832      0.00000
      8      10.4208      0.00000
      9      13.7895      0.00000
     10      14.1675      0.00000
     11      15.7228      0.00000
     12      17.5989      0.00000

 k-point     7 :       0.4286    0.1429    0.0000
  band No.  band energies     occupation 
      1      -4.2495      1.00000
      2      -0.2324      1.00000
      3       3.4617      1.00000
      4       4.0131      1.00000
      5       7.7739      0.00000
      6       9.4709      0.00000
      7      10.1921      0.00000
      8      11.4084      0.00000
      9      14.9983      0.00000
     10      15.8939      0.00000
     11      16.5278      0.00000
     12      17.8754      0.00000

 k-point     8 :      -0.4286    0.1429    0.0000
  band No.  band energies     occupation 
      1      -3.6873      1.00000
      2      -1.1008      1.00000
      3       3.0457      1.00000
      4       4.2134      1.00000
      5       7.8758      0.00000
      6       9.3702      0.00000
      7       9.7919      0.00000
      8      13.7588      0.00000
      9      14.2906      0.00000
     10      14.6934      0.00000
     11      16.5411      0.00000
     12      18.7919      0.00000

 k-point     9 :      -0.2857    0.1429    0.0000
  band No.  band energies     occupation 
      1      -4.6186      1.00000
      2       0.4491      1.00000
      3       3.0469      1.00000
      4       4.7299      1.00000
      5       8.2896      0.00000
      6       9.5601      0.00000
      7       9.5698      0.00000
      8      12.2615      0.00000
      9      12.3983      0.00000
     10      15.3779      0.00000
     11      16.8182      0.00000
     12      17.8098      0.00000

 k-point    10 :      -0.1429    0.1429    0.0000
  band No.  band energies     occupation 
      1      -5.5195      1.00000
      2       2.5758      1.00000
      3       3.7355      1.00000
      4       5.3251      1.00000
      5       8.7112      0.00000
      6       8.9627      0.00000
      7       9.2021      0.00000
      8      11.2498      0.00000
      9      11.8543      0.00000
     10      14.1700      0.00000
     11      15.5874      0.00000
     12      16.8328      0.00000

 k-point    11 :       0.2857    0.2857    0.0000
  band No.  band energies     occupation 
      1      -4.8161      1.00000
      2       1.5609      1.00000
      3       3.5764      1.00000
      4       3.5764      1.00000
      5       6.5566      0.00000
      6       8.2208      0.00000
      7      12.0529      0.00000
      8      12.0529      0.00000
      9      14.4169      0.00000
     10      14.9749      0.00000
     11      17.6531      0.00000
     12      18.9652      0.00000

 k-point    12 :       0.4286    0.2857    0.0000
  band No.  band energies     occupation 
      1      -3.9140      1.00000
      2       0.0602      1.00000
      3       2.5822      1.00000
      4       3.3173      1.00000
      5       6.8352      0.00000
      6       8.3205      0.00000
      7      12.2633      0.00000
      8      12.4357      0.00000
      9      16.5552      0.00000
     10      16.8795      0.00000
     11      17.2316      0.00000
     12      17.8577      0.00000

 k-point    13 :      -0.4286    0.2857    0.0000
  band No.  band energies     occupation 
      1      -2.9922      1.00000
      2      -1.1225      1.00000
      3       1.6200      1.00000
      4       3.4875      1.00000
      5       7.0713      0.00000
      6      10.5671      0.00000
      7      11.9312      0.00000
      8      11.9947      0.00000
      9      14.6665      0.00000
     10      14.7055      0.00000
     11      18.9092      0.00000
     12      19.4054      0.00000

 k-point    14 :      -0.2857    0.2857    0.0000
  band No.  band energies     occupation 
      1      -3.6442      1.00000
      2      -0.3701      1.00000
      3       1.5432      1.00000
      4       4.0391      1.00000
      5       7.6872      0.00000
      6      11.1161      0.00000
      7      11.4184      0.00000
      8      12.2305      0.00000
      9      12.5280      0.00000
     10      13.7767      0.00000
     11      18.8663      0.00000
     12      19.4521      0.00000

 k-point    15 :       0.4286    0.4286    0.0000
  band No.  band energies     occupation 
      1      -3.1312      1.00000
      2      -0.9344      1.00000
      3       2.9453      1.00000
      4       2.9453      1.00000
      5       6.1882      0.00000
      6       6.6979      0.00000
      7      14.6870      0.00000
      8      14.6870      0.00000
      9      16.9260      0.00000
     10      17.3647      0.00000
     11      17.6898      0.00000
     12      17.6898      0.00000

 k-point    16 :      -0.4286    0.4286    0.0000
  band No.  band energies     occupation 
      1      -2.1789      1.00000
      2      -1.8934      1.00000
      3       2.0312      1.00000
      4       3.0072      1.00000
      5       6.4872      0.00000
      6       7.7617      0.00000
      7      14.4630      0.00000
      8      14.8904      0.00000
      9      15.0826      0.00000
     10      15.3782      0.00000
     11      19.3790      0.00000
     12      19.3984      0.00000

 k-point    17 :       0.4286    0.2857    0.1429
  band No.  band energies     occupation 
      1      -4.5071      1.00000
      2       0.8233      1.00000
      3       2.5825      1.00000
      4       3.9236      1.00000
      5       8.2252      0.00000
      6       9.4541      0.00000
      7       9.7879      0.00000
      8      11.7988      0.00000
      9      13.8895      0.00000
     10      16.5427      0.00000
     11      17.0387      0.00000
     12      18.0849      0.00000

 k-point    18 :      -0.4286    0.2857    0.1429
  band No.  band energies     occupation 
      1      -3.4628      1.00000
      2      -0.7121      1.00000
      3       2.0097      1.00000
      4       3.3810      1.00000
      5       8.7008      0.00000
      6       9.1207      0.00000
      7      11.1004      0.00000
      8      12.2444      0.00000
      9      13.9561      0.00000
     10      15.6174      0.00000
     11      17.7488      0.00000
     12      19.0099      0.00000

 k-point    19 :      -0.4286    0.4286    0.1429
  band No.  band energies     occupation 
      1      -2.9245      1.00000
      2      -1.0183      1.00000
      3       2.0981      1.00000
      4       2.5124      1.00000
      5       7.8418      0.00000
      6       8.2001      0.00000
      7      11.7936      0.00000
      8      14.3013      0.00000
      9      14.7824      0.00000
     10      16.6940      0.00000
     11      18.0935      0.00000
     12      19.6297      0.00000

 k-point    20 :      -0.2857    0.4286    0.1429
  band No.  band energies     occupation 
      1      -2.4842      1.00000
      2      -1.4162      1.00000
      3       1.4494      1.00000
      4       2.6045      1.00000
      5       8.3656      0.00000
      6      10.4636      0.00000
      7      11.2919      0.00000
      8      11.4196      0.00000
      9      14.7150      0.00000
     10      15.8803      0.00000
     11      18.8119      0.00000
     12      20.0860      0.00000


--------------------------------------------------------------------------------------------------------


 soft charge-density along one line, spin component           1
         0         1         2         3         4         5         6         7         8         9
 total charge-density along one line
 
 soft charge-density along one line, spin component           2
         0         1         2         3         4         5         6         7         8         9
 total charge-density along one line
 
 pseudopotential strength for first ion, spin component:           1
 18.410  25.683   0.000  -0.000   0.000   0.000  -0.000   0.000
 25.683  35.835   0.000  -0.000   0.000   0.000  -0.000   0.000
  0.000   0.000   4.177   0.000   0.000   7.783   0.000   0.000
 -0.000  -0.000   0.000   4.177   0.000   0.000   7.783   0.000
  0.000   0.000   0.000   0.000   4.177   0.000   0.000   7.783
  0.000   0.000   7.783   0.000   0.000  14.510   0.000   0.000
 -0.000  -0.000   0.000   7.783   0.000   0.000  14.510   0.000
  0.000   0.000   0.000   0.000   7.783   0.000   0.000  14.510
 pseudopotential strength for first ion, spin component:           2
 18.410  25.683   0.000  -0.000   0.000   0.000  -0.000   0.000
 25.683  35.836   0.000  -0.000   0.000   0.000  -0.000   0.000
  0.000   0.000   4.178   0.000   0.000   7.783   0.000   0.000
 -0.000  -0.000   0.000   4.178   0.000   0.000   7.783   0.000
  0.000   0.000   0.000   0.000   4.178   0.000   0.000   7.783
  0.000   0.000   7.783   0.000   0.000  14.511   0.000   0.000
 -0.000  -0.000   0.000   7.783   0.000   0.000  14.511   0.000
  0.000   0.000   0.000   0.000   7.783   0.000   0.000  14.511
 total augmentation occupancy for first ion, spin component:           1
  5.881  -2.252  -0.000  -0.000  -0.000  -0.000   0.000  -0.000
 -2.252   0.971  -0.000  -0.000   0.000  -0.000  -0.000   0.000
  0.000  -0.000   2.914  -0.000   0.000  -0.650   0.000  -0.000
  0.000   0.000  -0.000   2.914  -0.000   0.000  -0.650   0.000
 -0.000  -0.000   0.000  -0.000   2.914  -0.000   0.000  -0.650
 -0.000  -0.000  -0.650   0.000  -0.000   0.153  -0.000   0.000
  0.000  -0.000   0.000  -0.650   0.000  -0.000   0.153  -0.000
 -0.000   0.000  -0.000   0.000  -0.650   0.000  -0.000   0.153
 total augmentation occupancy for first ion, spin component:           2
  0.007  -0.004   0.000  -0.000  -0.000  -0.000   0.000   0.000
 -0.004   0.002  -0.000  -0.000   0.000   0.000  -0.000  -0.000
 -0.000  -0.000   0.001  -0.000   0.000  -0.000   0.000  -0.000
 -0.000  -0.000  -0.000   0.001  -0.000   0.000  -0.000   0.000
  0.000   0.000   0.000  -0.000   0.001  -0.000   0.000  -0.000
 -0.000  -0.000  -0.000   0.000  -0.000   0.000  -0.000   0.000
  0.000   0.000   0.000  -0.000   0.000  -0.000   0.000  -0.000
  0.000  -0.000  -0.000   0.000  -0.000   0.000  -0.000   0.000


------------------------ aborting loop because EDIFF is reached ----------------------------------------





 total charge

# of ion       s       p       d       tot
------------------------------------------
    1        0.751   0.935   0.000   1.686
    2        0.751   0.935   0.000   1.686
--------------------------------------------------
tot          1.502   1.870   0.000   3.372



 magnetization (x)

# of ion       s       p       d       tot
------------------------------------------
    1       -0.000  -0.000   0.000  -0.000
    2       -0.000  -0.000   0.000  -0.000
--------------------------------------------------
tot         -0.000  -0.000   0.000  -0.000
 
    CHARGE:  cpu time      0.0140: real time      0.0140
    FORLOC:  cpu time      0.0006: real time      0.0007
    FORNL :  cpu time      0.0071: real time      0.0081
    STRESS:  cpu time      0.0256: real time      0.0262
    FORCOR:  cpu time      0.0113: real time      0.0115
    FORHAR:  cpu time      0.0032: real time      0.0032
    MIXING:  cpu time      0.0007: real time      0.0007
    OFIELD:  cpu time      0.0005: real time      0.0006

  FORCE on cell =-STRESS in cart. coord.  units (eV):
  Direction    XX          YY          ZZ          XY          YZ          ZX
  --------------------------------------------------------------------------------------
  Alpha Z     3.33881     3.33881     3.33881
  Ewald     -75.99608   -75.99616   -75.99607     0.00001     0.00000     0.00000
  Hartree     4.90687     4.90686     4.90687     0.00000     0.00000    -0.00000
  E(xc)     -25.51089   -25.51089   -25.51089    -0.00000     0.00000     0.00000
  Local     -29.14193   -29.14191   -29.14193    -0.00000     0.00000     0.00000
  n-local    73.73205    77.11539    81.50181    -0.93264    -0.61837    -0.01957
  augment   -11.50045   -11.50046   -11.50046    -0.00000    -0.00000    -0.00000
  Kinetic    53.25049    55.14572    60.68176     0.93839     1.03201    -0.57144
  Fock        0.00000     0.00000     0.00000     0.00000     0.00000     0.00000
  -------------------------------------------------------------------------------------
  Total      -0.09463    -0.09463    -0.09463    -0.00000     0.00000     0.00000
  in kB      -3.75921    -3.75921    -3.75921    -0.00000     0.00000     0.00000
  external pressure =       -3.76 kB  Pullay stress =        0.00 kB


 VOLUME and BASIS-vectors are now :
 -----------------------------------------------------------------------------
  energy-cutoff  :      680.00
  volume of cell :       40.33
      direct lattice vectors                 reciprocal lattice vectors
     3.333572997  0.000000000  1.924638998     0.299978432 -0.106058350  0.000000000
     1.111190999  3.142923999  1.924638999     0.000000000  0.318175050  0.000000000
     0.000000000  0.000000000  3.849278000    -0.149989216 -0.106058350  0.259788979

  length of vectors
     3.849278400  3.849279410  3.849278000     0.318175161  0.318175050  0.318175190


 FORCES acting on ions
    electron-ion (+dipol)            ewald-force                    non-local-force                 convergence-correction
 -----------------------------------------------------------------------------------------------
   0.511E-05 0.241E-04 0.296E-07   -.886E-05 -.418E-04 -.379E-07   -.178E-16 -.213E-16 -.413E-16   0.542E-08 0.261E-07 -.200E-09
   -.511E-05 -.241E-04 -.296E-07   0.886E-05 0.418E-04 0.379E-07   0.633E-16 -.338E-16 0.149E-15   -.542E-08 -.261E-07 0.200E-09
 -----------------------------------------------------------------------------------------------
   0.149E-12 -.564E-13 0.728E-13   -.602E-15 -.229E-16 -.120E-15   0.455E-16 -.552E-16 0.108E-15   -.954E-16 0.164E-15 -.248E-15
 
 
 POSITION                                       TOTAL-FORCE (eV/Angst)
 -----------------------------------------------------------------------------------
      3.88917      2.75006      6.73624        -0.000000     -0.000000     -0.000000
      0.55560      0.39287      0.96232         0.000000      0.000000      0.000000
 -----------------------------------------------------------------------------------
    total drift:                                0.000000     -0.000000      0.000000


--------------------------------------------------------------------------------------------------------



  FREE ENERGIE OF THE ION-ELECTRON SYSTEM (eV)
  ---------------------------------------------------
  free  energy   TOTEN  =       -11.48290021 eV

  energy  without entropy=      -11.48290021  energy(sigma->0) =      -11.48290021
 


--------------------------------------------------------------------------------------------------------


    POTLOK:  cpu time      0.1695: real time      0.1700


--------------------------------------------------------------------------------------------------------


 writing wavefunctions
     LOOP+:  cpu time      4.2591: real time      4.6644
    4ORBIT:  cpu time      0.0000: real time      0.0000



 total charge

# of ion       s       p       d       tot
------------------------------------------
    1        0.751   0.935   0.000   1.686
    2        0.751   0.935   0.000   1.686
--------------------------------------------------
tot          1.502   1.870   0.000   3.372



 magnetization (x)

# of ion       s       p       d       tot
------------------------------------------
    1       -0.000  -0.000   0.000  -0.000
    2       -0.000  -0.000   0.000  -0.000
--------------------------------------------------
tot         -0.000  -0.000   0.000  -0.000
 
 BZINTS: Fermi energy:    5.726666;    8.000000 electrons
         Band energy: 0.524379E+01;  BLOECHL correction:    0.000000

 total amount of memory used by VASP MPI-rank0    31489. kBytes
=======================================================================

   base      :      30000. kBytes
   nonl-proj :        220. kBytes
   fftplans  :        348. kBytes
   grid      :        800. kBytes
   one-center:          6. kBytes
   wavefun   :        115. kBytes
 
  
  
 General timing and accounting informations for this job:
 ========================================================
  
                  Total CPU time used (sec):        8.323
                            User time (sec):        7.054
                          System time (sec):        1.268
                         Elapsed time (sec):        9.440
  
                   Maximum memory used (kb):      169680.
                   Average memory used (kb):          N/A
  
                          Minor page faults:        27082
                          Major page faults:            0
                 Voluntary context switches:         1721
