 running  120 mpi-ranks, on    3 nodes
 distrk:  each k-point on  120 cores,    1 groups
 distr:  one band on   10 cores,   12 groups
 vasp.6.4.2 20Jul23 (build Mar 15 2024 16:31:38) complex                        
  
 POSCAR found type information on POSCAR Si
 POSCAR found :  1 types and       2 ions
 Reading from existing POTCAR
 scaLAPACK will be used
 Reading from existing POTCAR
 -----------------------------------------------------------------------------
|                                                                             |
|               ----> ADVICE to this user running VASP <----                  |
|                                                                             |
|     You enforced a specific xc type in the INCAR file but a different       |
|     type was found in the POTCAR file.                                      |
|     I HOPE YOU KNOW WHAT YOU ARE DOING!                                     |
|                                                                             |
 -----------------------------------------------------------------------------

 LDA part: xc-table for Pade appr. of Perdew
 POSCAR, INCAR and KPOINTS ok, starting setup
 FFT: planning ... GRIDC
 FFT: planning ... GRID_SOFT
 FFT: planning ... GRID
 WAVECAR not read
 augmentation electrons   8.00881168391824     
 soft         electrons  0.000000000000000E+000
 total        electrons   8.00881168391824     
 augmentation electrons  1.321752587735758E-003
 soft         electrons  0.000000000000000E+000
 total        electrons  1.321752587735758E-003
 augmentation electrons   21.6451912620411     
 soft         electrons  0.000000000000000E+000
 total        electrons   21.6451912620411     
 augmentation electrons   18.9088014620411     
 soft         electrons  0.000000000000000E+000
 total        electrons   18.9088014620411     
 entering main loop
       N       E                     dE             d eps       ncg     rms          rms(c)
DAV:   1     0.240758680420E+01    0.24076E+01   -0.36696E+03   960   0.624E+02
DAV:   2    -0.113936040080E+02   -0.13801E+02   -0.13745E+02  1308   0.562E+01
DAV:   3    -0.115155235016E+02   -0.12192E+00   -0.12192E+00  1296   0.659E+00
DAV:   4    -0.115158719859E+02   -0.34848E-03   -0.34848E-03  1512   0.352E-01
DAV:   5    -0.115158723795E+02   -0.39361E-06   -0.39361E-06  1260   0.761E-03    0.538E+00
RMM:   6    -0.115380385979E+02   -0.22166E-01   -0.48120E-02   960   0.108E+00    0.305E+00
RMM:   7    -0.114589846774E+02    0.79054E-01   -0.52375E-02  1008   0.114E+00    0.139E+00
RMM:   8    -0.114826834288E+02   -0.23699E-01   -0.10581E-02   997   0.612E-01    0.339E-01
RMM:   9    -0.114827247173E+02   -0.41289E-04   -0.76927E-04  1079   0.178E-01    0.109E-01
RMM:  10    -0.114828582512E+02   -0.13353E-03   -0.22845E-04  1044   0.925E-02    0.543E-02
RMM:  11    -0.114828942577E+02   -0.36007E-04   -0.97703E-05  1061   0.587E-02    0.390E-02
RMM:  12    -0.114829002129E+02   -0.59551E-05   -0.17143E-05   942   0.266E-02
   1 F= -.11482900E+02 E0= -.11482900E+02  d E =0.000000E+00  mag=    -0.0002
 writing wavefunctions
 augmentation electrons -0.450733542049741     
 soft         electrons   8.45732116205763     
 total        electrons   8.00658762000789     
 augmentation electrons  2.365228516687108E-005
 soft         electrons   8.45732116205763     
 total        electrons -2.813838628809410E-007
