<?xml version="1.0" encoding="ISO-8859-1"?>
<modeling>
 <generator>
  <i name="program" type="string">vasp </i>
  <i name="version" type="string">6.4.2  </i>
  <i name="subversion" type="string">20Jul23 (build Mar 15 2024 16:31:38) complex                          parallel </i>
  <i name="platform" type="string">LinuxIFC </i>
  <i name="date" type="string">2025 03 19 </i>
  <i name="time" type="string">14:39:50 </i>
 </generator>
 <incar>
  <i type="string" name="PREC">Accurate</i>
  <i type="string" name="ALGO">Fast</i>
  <i type="int" name="ISPIN">     2</i>
  <i type="int" name="NELM">   200</i>
  <i name="EDIFF">      0.00001000</i>
  <i type="int" name="NSW">     0</i>
  <i name="ENCUT">    680.00000000</i>
  <i name="ENAUG">   1360.00000000</i>
  <v name="MAGMOM">      0.60000000      0.60000000</v>
  <i type="logical" name="LREAL"> F  </i>
  <i type="int" name="ISMEAR">    -5</i>
  <i name="SIGMA">      0.20000000</i>
  <i type="logical" name="LWAVE"> T  </i>
  <i type="logical" name="LCHARG"> T  </i>
  <i type="logical" name="LVTOT"> T  </i>
  <i type="int" name="LORBIT">    11</i>
  <i type="logical" name="LELF"> F  </i>
  <i type="logical" name="LASPH"> T  </i>
  <i type="logical" name="LAECHG"> T  </i>
  <i type="string" name="GGA">Ps</i>
  <i type="logical" name="LMIXTAU"> T  </i>
 </incar>
 <primitive_cell>
  <structure name="primitive_cell" >
   <crystal>
    <varray name="basis" >
     <v>       3.33357300       0.00000000       1.92463900 </v>
     <v>       1.11119100       3.14292400       1.92463900 </v>
     <v>       0.00000000       0.00000000       3.84927800 </v>
    </varray>
    <i name="volume">     40.32952680 </i>
    <varray name="rec_basis" >
     <v>       0.29997843      -0.10605835       0.00000000 </v>
     <v>       0.00000000       0.31817505       0.00000000 </v>
     <v>      -0.14998922      -0.10605835       0.25978898 </v>
    </varray>
   </crystal>
   <varray name="positions" >
    <v>       0.87500000       0.87500000       0.87500000 </v>
    <v>       0.12500000       0.12500000       0.12500000 </v>
   </varray>
  </structure>
  <varray name="primitive_index" >
   <v type="int" >        1 </v>
   <v type="int" >        2 </v>
  </varray>
 </primitive_cell>
 <kpoints>
  <generation param="Gamma">
   <v type="int" name="divisions">       7        7        7 </v>
   <v name="usershift">      0.00000000       0.00000000       0.00000000 </v>
   <v name="genvec1">      0.14285714       0.00000000       0.00000000 </v>
   <v name="genvec2">      0.00000000       0.14285714       0.00000000 </v>
   <v name="genvec3">      0.00000000       0.00000000       0.14285714 </v>
   <v name="shift">      0.00000000       0.00000000       0.00000000 </v>
  </generation>
  <varray name="kpointlist" >
   <v>       0.00000000       0.00000000       0.00000000 </v>
   <v>       0.14285714      -0.00000000       0.00000000 </v>
   <v>       0.28571429      -0.00000000       0.00000000 </v>
   <v>       0.42857143      -0.00000000       0.00000000 </v>
   <v>       0.14285714       0.14285714       0.00000000 </v>
   <v>       0.28571429       0.14285714       0.00000000 </v>
   <v>       0.42857143       0.14285714       0.00000000 </v>
   <v>      -0.42857143       0.14285714       0.00000000 </v>
   <v>      -0.28571429       0.14285714       0.00000000 </v>
   <v>      -0.14285714       0.14285714       0.00000000 </v>
   <v>       0.28571429       0.28571429       0.00000000 </v>
   <v>       0.42857143       0.28571429       0.00000000 </v>
   <v>      -0.42857143       0.28571429       0.00000000 </v>
   <v>      -0.28571429       0.28571429       0.00000000 </v>
   <v>       0.42857143       0.42857143       0.00000000 </v>
   <v>      -0.42857143       0.42857143       0.00000000 </v>
   <v>       0.42857143       0.28571429       0.14285714 </v>
   <v>      -0.42857143       0.28571429       0.14285714 </v>
   <v>      -0.42857143       0.42857143       0.14285714 </v>
   <v>      -0.28571429       0.42857143       0.14285714 </v>
  </varray>
  <varray name="weights" >
   <v>       0.00291545 </v>
   <v>       0.02332362 </v>
   <v>       0.02332362 </v>
   <v>       0.02332362 </v>
   <v>       0.01749271 </v>
   <v>       0.06997085 </v>
   <v>       0.06997085 </v>
   <v>       0.06997085 </v>
   <v>       0.06997085 </v>
   <v>       0.03498542 </v>
   <v>       0.01749271 </v>
   <v>       0.06997085 </v>
   <v>       0.06997085 </v>
   <v>       0.03498542 </v>
   <v>       0.01749271 </v>
   <v>       0.03498542 </v>
   <v>       0.06997085 </v>
   <v>       0.13994169 </v>
   <v>       0.06997085 </v>
   <v>       0.06997085 </v>
  </varray>
  <varray name="tetrahedronlist"  type="int" >
   <v type="int" >       48        2        3        6       10 </v>
   <v type="int" >       48        6        9       10       17 </v>
   <v type="int" >       24        9        9       10       17 </v>
   <v type="int" >       48        3        6        9       10 </v>
   <v type="int" >       48        9       14       17       18 </v>
   <v type="int" >       48        8        9       14       18 </v>
   <v type="int" >       24        9        9       14       17 </v>
   <v type="int" >       48        8       13       18       18 </v>
   <v type="int" >       48        7        8       13       18 </v>
   <v type="int" >       48        8       13       14       18 </v>
   <v type="int" >       48        7       12       17       18 </v>
   <v type="int" >       48        6        7       12       17 </v>
   <v type="int" >       48        7       12       13       18 </v>
   <v type="int" >       24        6        6       11       17 </v>
   <v type="int" >       24        5        6        6       11 </v>
   <v type="int" >       48        6       11       12       17 </v>
   <v type="int" >       24        5        6        6       10 </v>
   <v type="int" >       48        2        5        6       10 </v>
   <v type="int" >       48        6        7        9       17 </v>
   <v type="int" >       48        3        6        7        9 </v>
   <v type="int" >       48       12       17       18       19 </v>
   <v type="int" >       24       17       18       18       19 </v>
   <v type="int" >       24       14       17       18       18 </v>
   <v type="int" >       48        7        9       17       18 </v>
   <v type="int" >       48       18       19       20       20 </v>
   <v type="int" >       24       18       18       20       20 </v>
   <v type="int" >       48       13       18       18       20 </v>
   <v type="int" >       24       18       18       19       20 </v>
   <v type="int" >       24       14       18       18       20 </v>
   <v type="int" >       48       13       14       18       20 </v>
   <v type="int" >       48       13       18       19       20 </v>
   <v type="int" >       48       12       13       18       19 </v>
   <v type="int" >       24       12       12       17       19 </v>
   <v type="int" >       24       11       12       12       17 </v>
   <v type="int" >       24        6        6       10       17 </v>
   <v type="int" >       48       12       13       16       19 </v>
   <v type="int" >       24       16       19       19       20 </v>
   <v type="int" >       12       19       19       20       20 </v>
   <v type="int" >       24       19       20       20       20 </v>
   <v type="int" >       48       13       16       19       20 </v>
   <v type="int" >        6       20       20       20       20 </v>
   <v type="int" >       48        7        8        8       18 </v>
   <v type="int" >       48        7        8        9       18 </v>
   <v type="int" >       24       13       13       16       20 </v>
   <v type="int" >       24        8        8       18       18 </v>
   <v type="int" >       24        2        2        5       10 </v>
   <v type="int" >       48        3        4        7        9 </v>
   <v type="int" >       48        4        7        8        9 </v>
   <v type="int" >       24       13       13       14       20 </v>
   <v type="int" >       24       12       12       15       19 </v>
   <v type="int" >       24       11       12       12       15 </v>
   <v type="int" >       48       12       15       16       19 </v>
   <v type="int" >       48        4        7        8        8 </v>
   <v type="int" >       12       16       16       19       19 </v>
   <v type="int" >       24       15       16       16       19 </v>
   <v type="int" >       24        4        4        8        8 </v>
   <v type="int" >       12       15       15       16       16 </v>
   <v type="int" >       24        1        2        2        5 </v>
  </varray>
  <i name="volumeweight">      0.00048591 </i>
 </kpoints>
 <parameters>
  <separator name="general" >
   <i type="string" name="SYSTEM">unknown system</i>
   <i type="logical" name="LCOMPAT"> F  </i>
  </separator>
  <separator name="electronic" >
   <i type="string" name="PREC">accura</i>
   <i name="ENMAX">    680.00000000</i>
   <i name="ENAUG">   1360.00000000</i>
   <i name="EDIFF">      0.00001000</i>
   <i type="int" name="IALGO">    68</i>
   <i type="int" name="IWAVPR">    10</i>
   <i type="int" name="NBANDS">    12</i>
   <i type="int" name="NBANDSLOW">    -1</i>
   <i type="int" name="NBANDSHIGH">    -1</i>
   <i name="NELECT">      8.00000000</i>
   <i type="int" name="TURBO">     0</i>
   <i type="int" name="IRESTART">     0</i>
   <i type="int" name="NREBOOT">     0</i>
   <i type="int" name="NMIN">     0</i>
   <i name="EREF">      0.00000000</i>
   <separator name="electronic smearing" >
    <i type="int" name="ISMEAR">    -5</i>
    <i name="SIGMA">      0.20000000</i>
    <i name="KSPACING">      0.50000000</i>
    <i type="logical" name="KGAMMA"> T  </i>
    <i type="logical" name="KBLOWUP"> T  </i>
   </separator>
   <separator name="electronic projectors" >
    <i type="logical" name="LREAL"> F  </i>
    <v name="ROPT">      0.00000000</v>
    <i type="int" name="LMAXPAW">  -100</i>
    <i type="int" name="LMAXMIX">     2</i>
    <i type="logical" name="NLSPLINE"> F  </i>
   </separator>
   <separator name="electronic startup" >
    <i type="int" name="ISTART">     0</i>
    <i type="int" name="ICHARG">     2</i>
    <i type="int" name="INIWAV">     1</i>
   </separator>
   <separator name="electronic spin" >
    <i type="int" name="ISPIN">     2</i>
    <i type="logical" name="LNONCOLLINEAR"> F  </i>
    <v name="MAGMOM">      0.60000000      0.60000000</v>
    <i name="NUPDOWN">     -1.00000000</i>
    <i type="logical" name="LSORBIT"> F  </i>
    <v name="SAXIS">      0.00000000      0.00000000      1.00000000</v>
    <i type="logical" name="LSPIRAL"> F  </i>
    <v name="QSPIRAL">      0.00000000      0.00000000      0.00000000</v>
    <i type="logical" name="LZEROZ"> F  </i>
   </separator>
   <separator name="electronic exchange-correlation" >
    <i type="logical" name="LASPH"> T  </i>
    <i type="logical" name="LMETAGGA"> F  </i>
   </separator>
   <separator name="electronic convergence" >
    <i type="int" name="NELM">   200</i>
    <i type="int" name="NELMDL">    -5</i>
    <i type="int" name="NELMIN">     2</i>
    <i name="ENINI">    680.00000000</i>
    <separator name="electronic convergence detail" >
     <i type="logical" name="LDIAG"> T  </i>
     <i type="logical" name="LSUBROT"> F  </i>
     <i name="WEIMIN">      0.00000000</i>
     <i name="EBREAK">      0.00000021</i>
     <i name="DEPER">      0.30000000</i>
     <i type="int" name="NRMM">     4</i>
     <i name="TIME">      0.40000000</i>
    </separator>
   </separator>
   <separator name="electronic mixer" >
    <i name="AMIX">      0.40000000</i>
    <i name="BMIX">      1.00000000</i>
    <i name="AMIN">      0.10000000</i>
    <i name="AMIX_MAG">      1.60000000</i>
    <i name="BMIX_MAG">      1.00000000</i>
    <separator name="electronic mixer details" >
     <i type="int" name="IMIX">     4</i>
     <i type="logical" name="MIXFIRST"> F  </i>
     <i type="int" name="MAXMIX">   -45</i>
     <i name="WC">    100.00000000</i>
     <i type="int" name="INIMIX">     1</i>
     <i type="int" name="MIXPRE">     1</i>
     <i type="int" name="MREMOVE">     5</i>
    </separator>
   </separator>
   <separator name="electronic dipolcorrection" >
    <i type="logical" name="LDIPOL"> F  </i>
    <i type="logical" name="LMONO"> F  </i>
    <i type="int" name="IDIPOL">     0</i>
    <i name="EPSILON">      1.00000000</i>
    <v name="DIPOL">   -100.00000000   -100.00000000   -100.00000000</v>
    <i name="EFIELD">      0.00000000</i>
   </separator>
  </separator>
  <separator name="grids" >
   <i type="int" name="NGX">    36</i>
   <i type="int" name="NGY">    36</i>
   <i type="int" name="NGZ">    36</i>
   <i type="int" name="NGXF">    72</i>
   <i type="int" name="NGYF">    72</i>
   <i type="int" name="NGZF">    72</i>
   <i type="logical" name="ADDGRID"> F  </i>
  </separator>
  <separator name="ionic" >
   <i type="int" name="NSW">     0</i>
   <i type="int" name="IBRION">    -1</i>
   <i type="int" name="MDALGO">     0</i>
   <i type="int" name="ISIF">     2</i>
   <i name="PSTRESS">      0.00000000</i>
   <i name="EDIFFG">      0.00010000</i>
   <i type="int" name="NFREE">     0</i>
   <i name="POTIM">      0.50000000</i>
   <i name="SMASS">     -3.00000000</i>
   <i name="SCALEE">      1.00000000</i>
  </separator>
  <separator name="ionic md" >
   <i name="TEBEG">      0.00010000</i>
   <i name="TEEND">      0.00010000</i>
   <i type="int" name="NBLOCK">     1</i>
   <i type="int" name="KBLOCK">     1</i>
   <i type="int" name="NPACO">   256</i>
   <i name="APACO">     10.00000000</i>
  </separator>
  <separator name="symmetry" >
   <i type="int" name="ISYM">     2</i>
   <i name="SYMPREC">      0.00001000</i>
  </separator>
  <separator name="dos" >
   <i type="int" name="LORBIT">    11</i>
   <v name="RWIGS">     -1.00000000</v>
   <i type="int" name="NEDOS">   301</i>
   <i name="EMIN">     10.00000000</i>
   <i name="EMAX">    -10.00000000</i>
   <i name="EFERMI">      0.00000000</i>
  </separator>
  <separator name="writing" >
   <i type="int" name="NWRITE">     2</i>
   <i type="logical" name="LWAVE"> T  </i>
   <i type="logical" name="LDOWNSAMPLE"> F  </i>
   <i type="logical" name="LCHARG"> T  </i>
   <i type="logical" name="LPARD"> F  </i>
   <i type="logical" name="LVTOT"> T  </i>
   <i type="logical" name="LVHAR"> F  </i>
   <i type="logical" name="LELF"> F  </i>
   <i type="logical" name="LOPTICS"> F  </i>
   <v name="STM">      0.00000000      0.00000000      0.00000000      0.00000000      0.00000000      0.00000000      0.00000000</v>
  </separator>
  <separator name="performance" >
   <i type="int" name="NPAR">    12</i>
   <i type="int" name="NSIM">     4</i>
   <i type="int" name="NBLK">    -1</i>
   <i type="logical" name="LPLANE"> T  </i>
   <i type="logical" name="LSCALAPACK"> T  </i>
   <i type="logical" name="LSCAAWARE"> F  </i>
   <i type="logical" name="LSCALU"> F  </i>
   <i type="logical" name="LASYNC"> F  </i>
   <i type="logical" name="LORBITALREAL"> F  </i>
  </separator>
  <separator name="miscellaneous" >
   <i type="int" name="IDIOT">     3</i>
   <i type="int" name="PHON_NSTRUCT">    -1</i>
   <i type="logical" name="LMUSIC"> F  </i>
   <v name="POMASS">     28.08500000</v>
   <v name="DARWINR">      0.00000000</v>
   <v name="DARWINV">      1.00000000</v>
   <i type="logical" name="LCORR"> T  </i>
  </separator>
  <i type="logical" name="GGA_COMPAT"> T  </i>
  <i type="logical" name="LBERRY"> F  </i>
  <i type="int" name="ICORELEVEL">     0</i>
  <i type="logical" name="LDAU"> F  </i>
  <i type="int" name="I_CONSTRAINED_M">     0</i>
  <separator name="electronic exchange-correlation" >
   <i type="string" name="GGA">PS</i>
   <i type="int" name="VOSKOWN">     0</i>
   <i type="logical" name="LHFCALC"> F  </i>
   <i type="string" name="PRECFOCK"></i>
   <i type="logical" name="LSYMGRAD"> F  </i>
   <i type="logical" name="LHFONE"> F  </i>
   <i type="logical" name="LRHFCALC"> F  </i>
   <i type="logical" name="LTHOMAS"> F  </i>
   <i type="logical" name="LMODELHF"> F  </i>
   <i type="logical" name="LFOCKACE"> F  </i>
   <i name="ENCUT4O">     -1.00000000</i>
   <i type="int" name="EXXOEP">     0</i>
   <i type="int" name="FOURORBIT">     0</i>
   <i name="AEXX">      0.00000000</i>
   <i name="HFALPHA">      0.00000000</i>
   <i name="MCALPHA">      0.00000000</i>
   <i name="ALDAX">      1.00000000</i>
   <i name="AGGAX">      1.00000000</i>
   <i name="ALDAC">      1.00000000</i>
   <i name="AGGAC">      1.00000000</i>
   <i type="int" name="NKREDX">     1</i>
   <i type="int" name="NKREDY">     1</i>
   <i type="int" name="NKREDZ">     1</i>
   <i type="logical" name="SHIFTRED"> F  </i>
   <i type="logical" name="ODDONLY"> F  </i>
   <i type="logical" name="EVENONLY"> F  </i>
   <i type="int" name="LMAXFOCK">     0</i>
   <i type="int" name="NMAXFOCKAE">     0</i>
   <i type="logical" name="LFOCKAEDFT"> F  </i>
   <i name="HFSCREEN">      0.00000000</i>
   <i name="HFSCREENC">      0.00000000</i>
   <i type="int" name="NBANDSGWLOW">     0</i>
  </separator>
  <separator name="vdW DFT" >
   <i type="logical" name="LUSE_VDW"> F  </i>
   <i type="int" name="IVDW_NL">     1</i>
   <i type="logical" name="LSPIN_VDW"> F  </i>
   <i name="Zab_VDW">     -0.84910000</i>
   <i name="PARAM1">      0.12340000</i>
   <i name="PARAM2">      1.00000000</i>
   <i name="PARAM3">      0.00000000</i>
  </separator>
  <separator name="model GW" >
   <i type="int" name="MODEL_GW">     0</i>
   <i name="MODEL_EPS0">     12.09885804</i>
   <i name="MODEL_ALPHA">      1.00000000</i>
  </separator>
  <separator name="linear response parameters" >
   <i type="logical" name="LEPSILON"> F  </i>
   <i type="logical" name="LRPA"> F  </i>
   <i type="logical" name="LNABLA"> F  </i>
   <i type="logical" name="LVEL"> F  </i>
   <i name="CSHIFT">      0.10000000</i>
   <i name="OMEGAMAX">     -1.00000000</i>
   <i name="DEG_THRESHOLD">      0.00200000</i>
   <i name="RTIME">     -0.10000000</i>
   <i name="WPLASMAI">      0.00000000</i>
   <v name="DFIELD">      0.00000000      0.00000000      0.00000000</v>
   <v name="WPLASMA">      0.00000000      0.00000000      0.00000000      0.00000000      0.00000000      0.00000000      0.00000000      0.00000000      0.00000000</v>
  </separator>
  <separator name="orbital magnetization" >
   <i type="logical" name="NUCIND"> F  </i>
   <v name="MAGPOS">      0.00000000      0.00000000      0.00000000</v>
   <i type="logical" name="LNICSALL"> T  </i>
   <i type="logical" name="ORBITALMAG"> F  </i>
   <i type="logical" name="LMAGBLOCH"> F  </i>
   <i type="logical" name="LCHIMAG"> F  </i>
   <i type="logical" name="LGAUGE"> T  </i>
   <i type="int" name="MAGATOM">     0</i>
   <v name="MAGDIPOL">      0.00000000      0.00000000      0.00000000</v>
   <v name="AVECCONST">      0.00000000      0.00000000      0.00000000</v>
  </separator>
  <separator name="response functions" >
   <i type="logical" name="LALL_IN_ONE"> F  </i>
   <i type="int" name="IALL_IN_ONE">    -1</i>
   <i type="int" name="NBANDS_WAVE">    -1</i>
   <i type="logical" name="LFINITE_TEMPERATURE"> F  </i>
   <i type="logical" name="LADDER"> F  </i>
   <i type="logical" name="LRPAFORCE"> F  </i>
   <i type="logical" name="LFXC"> F  </i>
   <i type="logical" name="LHARTREE"> T  </i>
   <i type="int" name="IBSE">     0</i>
   <v type="int" name="KPOINT">    -1     0     0     0</v>
   <i type="logical" name="LTCTC"> F  </i>
   <i type="logical" name="LTCTE"> F  </i>
   <i type="logical" name="LTETE"> F  </i>
   <i type="logical" name="LTRIPLET"> F  </i>
   <i type="logical" name="LFXCEPS"> F  </i>
   <i type="logical" name="LFXHEG"> F  </i>
   <i type="int" name="NATURALO">     2</i>
   <i type="logical" name="LHOLEGF"> F  </i>
   <i type="logical" name="L2ORDER"> F  </i>
   <i type="logical" name="LDMP1"> F  </i>
   <i type="logical" name="LMP2LT"> F  </i>
   <i type="logical" name="LSMP2LT"> F  </i>
   <i type="logical" name="LGWLF"> F  </i>
   <i name="ENCUTGW">     -1.60000002</i>
   <i name="ENCUTGWSOFT">     -1.60000002</i>
   <i name="ENCUTLF">     -1.00000000</i>
   <i type="logical" name="LESF_SPLINES"> F  </i>
   <i type="int" name="LMAXMP2">    -1</i>
   <i name="SCISSOR">      0.00000000</i>
   <i type="int" name="NOMEGA">     0</i>
   <i type="int" name="NOMEGAR">     0</i>
   <i type="int" name="NBANDSGW">    -1</i>
   <i type="int" name="NBANDSO">    -1</i>
   <i type="int" name="NBANDSV">    -1</i>
   <i type="int" name="NELMGW">     1</i>
   <i type="int" name="NELMHF">     1</i>
   <i type="int" name="DIM">     3</i>
   <i type="int" name="IESPILON">     4</i>
   <i type="int" name="ANTIRES">     0</i>
   <i name="OMEGAMAX">    -30.00000000</i>
   <i name="OMEGAMIN">    -30.00000000</i>
   <i name="OMEGATL">   -200.00000000</i>
   <i type="int" name="OMEGAGRID">     0</i>
   <i name="CSHIFT">     -0.10000000</i>
   <i type="logical" name="LSELFENERGY"> F  </i>
   <i type="logical" name="LSPECTRAL"> F  </i>
   <i type="logical" name="LSPECTRALGW"> F  </i>
   <i type="logical" name="LSINGLES"> F  </i>
   <i type="logical" name="LFERMIGW"> F  </i>
   <i type="logical" name="ODDONLYGW"> F  </i>
   <i type="logical" name="EVENONLYGW"> F  </i>
   <i type="int" name="NKREDLFX">     1</i>
   <i type="int" name="NKREDLFY">     1</i>
   <i type="int" name="NKREDLFZ">     1</i>
   <i type="int" name="MAXMEM">  2800</i>
   <i type="int" name="TELESCOPE">     0</i>
   <i type="int" name="NTAUPAR">    -1</i>
   <i type="int" name="NOMEGAPAR">    -1</i>
   <i name="DAMP_NEWTON">      0.80000001</i>
   <i name="LAMBDA">      1.00000000</i>
  </separator>
  <separator name="External order field" >
   <i name="OFIELD_KAPPA">      0.00000000</i>
   <v name="OFIELD_K">      0.00000000      0.00000000      0.00000000</v>
   <i name="OFIELD_Q6_NEAR">      0.00000000</i>
   <i name="OFIELD_Q6_FAR">      0.00000000</i>
   <i name="OFIELD_A">      0.00000000</i>
  </separator>
  <separator name="optional k-points parameters" >
   <i type="int" name="KPOINTS_OPT_MODE">     1</i>
   <i type="logical" name="LKPOINTS_OPT"> F  </i>
  </separator>
 </parameters>
 <atominfo>
  <atoms>       2 </atoms>
  <types>       1 </types>
  <array name="atoms" >
   <dimension dim="1">ion</dimension>
   <field type="string">element</field>
   <field type="int">atomtype</field>
   <set>
    <rc><c>Si</c><c>   1</c></rc>
    <rc><c>Si</c><c>   1</c></rc>
   </set>
  </array>
  <array name="atomtypes" >
   <dimension dim="1">type</dimension>
   <field type="int">atomspertype</field>
   <field type="string">element</field>
   <field>mass</field>
   <field>valence</field>
   <field type="string">pseudopotential</field>
   <set>
    <rc><c>   2</c><c>Si</c><c>     28.08500000</c><c>      4.00000000</c><c>  PAW_PBE Si 05Jan2001                  </c></rc>
   </set>
  </array>
 </atominfo>
 <structure name="initialpos" >
  <crystal>
   <varray name="basis" >
    <v>       3.33357300       0.00000000       1.92463900 </v>
    <v>       1.11119100       3.14292400       1.92463900 </v>
    <v>       0.00000000       0.00000000       3.84927800 </v>
   </varray>
   <i name="volume">     40.32952680 </i>
   <varray name="rec_basis" >
    <v>       0.29997843      -0.10605835       0.00000000 </v>
    <v>       0.00000000       0.31817505       0.00000000 </v>
    <v>      -0.14998922      -0.10605835       0.25978898 </v>
   </varray>
  </crystal>
  <varray name="positions" >
   <v>       0.87500000       0.87500000       0.87500000 </v>
   <v>       0.12500000       0.12500000       0.12500000 </v>
  </varray>
 </structure>
 <calculation>
  <scstep>
   <time name="dav">    0.10    0.10</time>
   <time name="total">    0.29    0.29</time>
   <energy>
    <i name="alphaZ">      3.33880742 </i>
    <i name="ewald">   -227.98820653 </i>
    <i name="hartreedc">    -11.11484529 </i>
    <i name="XCdc">    -17.40760180 </i>
    <i name="pawpsdc">    174.89845602 </i>
    <i name="pawaedc">   -140.31916047 </i>
    <i name="eentropy">      0.00000000 </i>
    <i name="bandstr">     15.84853740 </i>
    <i name="atom">    205.15160006 </i>
    <i name="e_fr_energy">      2.40758680 </i>
    <i name="e_wo_entrp">      2.40758680 </i>
    <i name="e_0_energy">      2.40758680 </i>
   </energy>
  </scstep>
  <scstep>
   <time name="dav">    0.12    0.12</time>
   <time name="total">    0.12    0.12</time>
   <energy>
    <i name="e_fr_energy">    -11.39360401 </i>
    <i name="e_wo_entrp">    -11.39360401 </i>
    <i name="e_0_energy">    -11.39360401 </i>
   </energy>
  </scstep>
  <scstep>
   <time name="dav">    0.13    0.14</time>
   <time name="total">    0.13    0.14</time>
   <energy>
    <i name="e_fr_energy">    -11.51552350 </i>
    <i name="e_wo_entrp">    -11.51552350 </i>
    <i name="e_0_energy">    -11.51552350 </i>
   </energy>
  </scstep>
  <scstep>
   <time name="dav">    0.13    0.14</time>
   <time name="total">    0.13    0.14</time>
   <energy>
    <i name="e_fr_energy">    -11.51587199 </i>
    <i name="e_wo_entrp">    -11.51587199 </i>
    <i name="e_0_energy">    -11.51587199 </i>
   </energy>
  </scstep>
  <scstep>
   <time name="dav">    0.10    0.11</time>
   <time name="total">    0.12    0.14</time>
   <energy>
    <i name="e_fr_energy">    -11.51587238 </i>
    <i name="e_wo_entrp">    -11.51587238 </i>
    <i name="e_0_energy">    -11.51587238 </i>
   </energy>
  </scstep>
  <scstep>
   <time name="diag">    0.11    0.11</time>
   <time name="diis">    0.41    0.41</time>
   <time name="orth">    0.01    0.01</time>
   <time name="total">    0.71    0.88</time>
   <energy>
    <i name="e_fr_energy">    -11.53803860 </i>
    <i name="e_wo_entrp">    -11.53803860 </i>
    <i name="e_0_energy">    -11.53803860 </i>
   </energy>
  </scstep>
  <scstep>
   <time name="diag">    0.08    0.08</time>
   <time name="diis">    0.04    0.04</time>
   <time name="orth">    0.00    0.00</time>
   <time name="total">    0.30    0.36</time>
   <energy>
    <i name="e_fr_energy">    -11.45898468 </i>
    <i name="e_wo_entrp">    -11.45898468 </i>
    <i name="e_0_energy">    -11.45898468 </i>
   </energy>
  </scstep>
  <scstep>
   <time name="diag">    0.07    0.08</time>
   <time name="diis">    0.01    0.01</time>
   <time name="orth">    0.00    0.00</time>
   <time name="total">    0.28    0.29</time>
   <energy>
    <i name="e_fr_energy">    -11.48268343 </i>
    <i name="e_wo_entrp">    -11.48268343 </i>
    <i name="e_0_energy">    -11.48268343 </i>
   </energy>
  </scstep>
  <scstep>
   <time name="diag">    0.07    0.07</time>
   <time name="diis">    0.02    0.02</time>
   <time name="orth">    0.01    0.01</time>
   <time name="total">    0.27    0.29</time>
   <energy>
    <i name="e_fr_energy">    -11.48272472 </i>
    <i name="e_wo_entrp">    -11.48272472 </i>
    <i name="e_0_energy">    -11.48272472 </i>
   </energy>
  </scstep>
  <scstep>
   <time name="diag">    0.07    0.07</time>
   <time name="diis">    0.02    0.02</time>
   <time name="orth">    0.00    0.00</time>
   <time name="total">    0.27    0.29</time>
   <energy>
    <i name="e_fr_energy">    -11.48285825 </i>
    <i name="e_wo_entrp">    -11.48285825 </i>
    <i name="e_0_energy">    -11.48285825 </i>
   </energy>
  </scstep>
  <scstep>
   <time name="diag">    0.08    0.08</time>
   <time name="diis">    0.02    0.02</time>
   <time name="orth">    0.01    0.01</time>
   <time name="total">    0.28    0.31</time>
   <energy>
    <i name="e_fr_energy">    -11.48289426 </i>
    <i name="e_wo_entrp">    -11.48289426 </i>
    <i name="e_0_energy">    -11.48289426 </i>
   </energy>
  </scstep>
  <scstep>
   <time name="diag">    0.07    0.07</time>
   <time name="diis">    0.02    0.02</time>
   <time name="orth">    0.01    0.01</time>
   <time name="total">    0.27    0.28</time>
   <energy>
    <i name="alphaZ">      3.33880742 </i>
    <i name="ewald">   -227.98820653 </i>
    <i name="hartreedc">    -14.71820837 </i>
    <i name="XCdc">    -16.87729464 </i>
    <i name="pawpsdc">    860.74095281 </i>
    <i name="pawaedc">   -826.37433776 </i>
    <i name="eentropy">      0.00000000 </i>
    <i name="bandstr">      5.24378679 </i>
    <i name="atom">    205.15160006 </i>
    <i name="e_fr_energy">    -11.48290021 </i>
    <i name="e_wo_entrp">    -11.48290021 </i>
    <i name="e_0_energy">    -11.48290021 </i>
   </energy>
  </scstep>
  <structure>
   <crystal>
    <varray name="basis" >
     <v>       3.33357300       0.00000000       1.92463900 </v>
     <v>       1.11119100       3.14292400       1.92463900 </v>
     <v>       0.00000000       0.00000000       3.84927800 </v>
    </varray>
    <i name="volume">     40.32952680 </i>
    <varray name="rec_basis" >
     <v>       0.29997843      -0.10605835       0.00000000 </v>
     <v>       0.00000000       0.31817505       0.00000000 </v>
     <v>      -0.14998922      -0.10605835       0.25978898 </v>
    </varray>
   </crystal>
   <varray name="positions" >
    <v>       0.87500000       0.87500000       0.87500000 </v>
    <v>       0.12500000       0.12500000       0.12500000 </v>
   </varray>
  </structure>
  <varray name="forces" >
   <v>      -0.00000000      -0.00000000      -0.00000000 </v>
   <v>       0.00000000       0.00000000       0.00000000 </v>
  </varray>
  <varray name="stress" >
   <v>      -3.75921109      -0.00000000       0.00000000 </v>
   <v>      -0.00000000      -3.75921405       0.00000000 </v>
   <v>       0.00000000       0.00000000      -3.75921005 </v>
  </varray>
  <energy>
   <i name="e_fr_energy">    -11.48290021 </i>
   <i name="e_wo_entrp">    -11.48290021 </i>
   <i name="e_0_energy">    -11.48290021 </i>
  </energy>
  <time name="totalsc">    4.26    4.66</time>
  <eigenvalues>
   <array>
    <dimension dim="1">band</dimension>
    <dimension dim="2">kpoint</dimension>
    <dimension dim="3">spin</dimension>
    <field>eigene</field>
    <field>occ</field>
    <set>
     <set comment="spin 1">
      <set comment="kpoint 1">
       <r>   -6.2207    1.0000 </r>
       <r>    5.7213    1.0000 </r>
       <r>    5.7213    1.0000 </r>
       <r>    5.7214    1.0000 </r>
       <r>    8.2337    0.0000 </r>
       <r>    8.2337    0.0000 </r>
       <r>    8.2337    0.0000 </r>
       <r>    8.9639    0.0000 </r>
       <r>   13.4005    0.0000 </r>
       <r>   13.4035    0.0000 </r>
       <r>   13.4035    0.0000 </r>
       <r>   16.7908    0.0000 </r>
      </set>
      <set comment="kpoint 2">
       <r>   -5.9552    1.0000 </r>
       <r>    3.7766    1.0000 </r>
       <r>    5.3622    1.0000 </r>
       <r>    5.3622    1.0000 </r>
       <r>    8.0801    0.0000 </r>
       <r>    8.7560    0.0000 </r>
       <r>    8.7560    0.0000 </r>
       <r>   10.6406    0.0000 </r>
       <r>   12.8214    0.0000 </r>
       <r>   12.8214    0.0000 </r>
       <r>   14.3792    0.0000 </r>
       <r>   16.1463    0.0000 </r>
      </set>
      <set comment="kpoint 3">
       <r>   -5.1894    1.0000 </r>
       <r>    1.1556    1.0000 </r>
       <r>    4.8471    1.0000 </r>
       <r>    4.8471    1.0000 </r>
       <r>    7.5306    0.0000 </r>
       <r>    9.1990    0.0000 </r>
       <r>    9.1991    0.0000 </r>
       <r>   13.0390    0.0000 </r>
       <r>   13.1067    0.0000 </r>
       <r>   13.1067    0.0000 </r>
       <r>   14.3952    0.0000 </r>
       <r>   18.1141    0.0000 </r>
      </set>
      <set comment="kpoint 4">
       <r>   -4.1463    1.0000 </r>
       <r>   -0.8779    1.0000 </r>
       <r>    4.5600    1.0000 </r>
       <r>    4.5600    1.0000 </r>
       <r>    7.2027    0.0000 </r>
       <r>    9.0366    0.0000 </r>
       <r>    9.0367    0.0000 </r>
       <r>   13.2881    0.0000 </r>
       <r>   15.1282    0.0000 </r>
       <r>   15.1282    0.0000 </r>
       <r>   16.1081    0.0000 </r>
       <r>   18.1903    0.0000 </r>
      </set>
      <set comment="kpoint 5">
       <r>   -5.8654    1.0000 </r>
       <r>    4.0812    1.0000 </r>
       <r>    4.7421    1.0000 </r>
       <r>    4.7421    1.0000 </r>
       <r>    7.5273    0.0000 </r>
       <r>    9.6435    0.0000 </r>
       <r>    9.6435    0.0000 </r>
       <r>   10.0471    0.0000 </r>
       <r>   12.0959    0.0000 </r>
       <r>   13.7969    0.0000 </r>
       <r>   14.7994    0.0000 </r>
       <r>   17.4105    0.0000 </r>
      </set>
      <set comment="kpoint 6">
       <r>   -5.2592    1.0000 </r>
       <r>    1.9552    1.0000 </r>
       <r>    4.1535    1.0000 </r>
       <r>    4.1999    1.0000 </r>
       <r>    7.7177    0.0000 </r>
       <r>    9.5596    0.0000 </r>
       <r>   10.1830    0.0000 </r>
       <r>   10.4205    0.0000 </r>
       <r>   13.7896    0.0000 </r>
       <r>   14.1669    0.0000 </r>
       <r>   15.7236    0.0000 </r>
       <r>   17.5999    0.0000 </r>
      </set>
      <set comment="kpoint 7">
       <r>   -4.2495    1.0000 </r>
       <r>   -0.2324    1.0000 </r>
       <r>    3.4617    1.0000 </r>
       <r>    4.0131    1.0000 </r>
       <r>    7.7738    0.0000 </r>
       <r>    9.4708    0.0000 </r>
       <r>   10.1915    0.0000 </r>
       <r>   11.4083    0.0000 </r>
       <r>   14.9989    0.0000 </r>
       <r>   15.8935    0.0000 </r>
       <r>   16.5284    0.0000 </r>
       <r>   17.8751    0.0000 </r>
      </set>
      <set comment="kpoint 8">
       <r>   -3.6872    1.0000 </r>
       <r>   -1.1008    1.0000 </r>
       <r>    3.0456    1.0000 </r>
       <r>    4.2135    1.0000 </r>
       <r>    7.8756    0.0000 </r>
       <r>    9.3702    0.0000 </r>
       <r>    9.7913    0.0000 </r>
       <r>   13.7592    0.0000 </r>
       <r>   14.2911    0.0000 </r>
       <r>   14.6930    0.0000 </r>
       <r>   16.5411    0.0000 </r>
       <r>   18.7916    0.0000 </r>
      </set>
      <set comment="kpoint 9">
       <r>   -4.6186    1.0000 </r>
       <r>    0.4491    1.0000 </r>
       <r>    3.0469    1.0000 </r>
       <r>    4.7300    1.0000 </r>
       <r>    8.2894    0.0000 </r>
       <r>    9.5595    0.0000 </r>
       <r>    9.5699    0.0000 </r>
       <r>   12.2619    0.0000 </r>
       <r>   12.3977    0.0000 </r>
       <r>   15.3786    0.0000 </r>
       <r>   16.8182    0.0000 </r>
       <r>   17.8101    0.0000 </r>
      </set>
      <set comment="kpoint 10">
       <r>   -5.5195    1.0000 </r>
       <r>    2.5760    1.0000 </r>
       <r>    3.7354    1.0000 </r>
       <r>    5.3254    1.0000 </r>
       <r>    8.7109    0.0000 </r>
       <r>    8.9621    0.0000 </r>
       <r>    9.2024    0.0000 </r>
       <r>   11.2500    0.0000 </r>
       <r>   11.8535    0.0000 </r>
       <r>   14.1697    0.0000 </r>
       <r>   15.5885    0.0000 </r>
       <r>   16.8334    0.0000 </r>
      </set>
      <set comment="kpoint 11">
       <r>   -4.8161    1.0000 </r>
       <r>    1.5611    1.0000 </r>
       <r>    3.5762    1.0000 </r>
       <r>    3.5762    1.0000 </r>
       <r>    6.5565    0.0000 </r>
       <r>    8.2205    0.0000 </r>
       <r>   12.0528    0.0000 </r>
       <r>   12.0528    0.0000 </r>
       <r>   14.4171    0.0000 </r>
       <r>   14.9742    0.0000 </r>
       <r>   17.6547    0.0000 </r>
       <r>   18.9645    0.0000 </r>
      </set>
      <set comment="kpoint 12">
       <r>   -3.9139    1.0000 </r>
       <r>    0.0604    1.0000 </r>
       <r>    2.5820    1.0000 </r>
       <r>    3.3172    1.0000 </r>
       <r>    6.8351    0.0000 </r>
       <r>    8.3204    0.0000 </r>
       <r>   12.2633    0.0000 </r>
       <r>   12.4354    0.0000 </r>
       <r>   16.5548    0.0000 </r>
       <r>   16.8796    0.0000 </r>
       <r>   17.2324    0.0000 </r>
       <r>   17.8574    0.0000 </r>
      </set>
      <set comment="kpoint 13">
       <r>   -2.9921    1.0000 </r>
       <r>   -1.1224    1.0000 </r>
       <r>    1.6198    1.0000 </r>
       <r>    3.4874    1.0000 </r>
       <r>    7.0711    0.0000 </r>
       <r>   10.5673    0.0000 </r>
       <r>   11.9307    0.0000 </r>
       <r>   11.9948    0.0000 </r>
       <r>   14.6668    0.0000 </r>
       <r>   14.7051    0.0000 </r>
       <r>   18.9098    0.0000 </r>
       <r>   19.4023    0.0000 </r>
      </set>
      <set comment="kpoint 14">
       <r>   -3.6441    1.0000 </r>
       <r>   -0.3700    1.0000 </r>
       <r>    1.5430    1.0000 </r>
       <r>    4.0391    1.0000 </r>
       <r>    7.6869    0.0000 </r>
       <r>   11.1156    0.0000 </r>
       <r>   11.4191    0.0000 </r>
       <r>   12.2306    0.0000 </r>
       <r>   12.5274    0.0000 </r>
       <r>   13.7767    0.0000 </r>
       <r>   18.8673    0.0000 </r>
       <r>   19.4520    0.0000 </r>
      </set>
      <set comment="kpoint 15">
       <r>   -3.1312    1.0000 </r>
       <r>   -0.9342    1.0000 </r>
       <r>    2.9451    1.0000 </r>
       <r>    2.9451    1.0000 </r>
       <r>    6.1882    0.0000 </r>
       <r>    6.6977    0.0000 </r>
       <r>   14.6870    0.0000 </r>
       <r>   14.6870    0.0000 </r>
       <r>   16.9253    0.0000 </r>
       <r>   17.3653    0.0000 </r>
       <r>   17.6900    0.0000 </r>
       <r>   17.6900    0.0000 </r>
      </set>
      <set comment="kpoint 16">
       <r>   -2.1788    1.0000 </r>
       <r>   -1.8933    1.0000 </r>
       <r>    2.0310    1.0000 </r>
       <r>    3.0071    1.0000 </r>
       <r>    6.4871    0.0000 </r>
       <r>    7.7617    0.0000 </r>
       <r>   14.4626    0.0000 </r>
       <r>   14.8904    0.0000 </r>
       <r>   15.0831    0.0000 </r>
       <r>   15.3781    0.0000 </r>
       <r>   19.3795    0.0000 </r>
       <r>   19.3981    0.0000 </r>
      </set>
      <set comment="kpoint 17">
       <r>   -4.5070    1.0000 </r>
       <r>    0.8235    1.0000 </r>
       <r>    2.5823    1.0000 </r>
       <r>    3.9235    1.0000 </r>
       <r>    8.2251    0.0000 </r>
       <r>    9.4539    0.0000 </r>
       <r>    9.7877    0.0000 </r>
       <r>   11.7988    0.0000 </r>
       <r>   13.8891    0.0000 </r>
       <r>   16.5433    0.0000 </r>
       <r>   17.0387    0.0000 </r>
       <r>   18.0856    0.0000 </r>
      </set>
      <set comment="kpoint 18">
       <r>   -3.4628    1.0000 </r>
       <r>   -0.7120    1.0000 </r>
       <r>    2.0096    1.0000 </r>
       <r>    3.3809    1.0000 </r>
       <r>    8.7007    0.0000 </r>
       <r>    9.1206    0.0000 </r>
       <r>   11.1003    0.0000 </r>
       <r>   12.2443    0.0000 </r>
       <r>   13.9562    0.0000 </r>
       <r>   15.6173    0.0000 </r>
       <r>   17.7491    0.0000 </r>
       <r>   19.0102    0.0000 </r>
      </set>
      <set comment="kpoint 19">
       <r>   -2.9244    1.0000 </r>
       <r>   -1.0182    1.0000 </r>
       <r>    2.0979    1.0000 </r>
       <r>    2.5122    1.0000 </r>
       <r>    7.8418    0.0000 </r>
       <r>    8.2000    0.0000 </r>
       <r>   11.7935    0.0000 </r>
       <r>   14.3012    0.0000 </r>
       <r>   14.7826    0.0000 </r>
       <r>   16.6939    0.0000 </r>
       <r>   18.0934    0.0000 </r>
       <r>   19.6321    0.0000 </r>
      </set>
      <set comment="kpoint 20">
       <r>   -2.4841    1.0000 </r>
       <r>   -1.4161    1.0000 </r>
       <r>    1.4491    1.0000 </r>
       <r>    2.6043    1.0000 </r>
       <r>    8.3656    0.0000 </r>
       <r>   10.4640    0.0000 </r>
       <r>   11.2915    0.0000 </r>
       <r>   11.4195    0.0000 </r>
       <r>   14.7151    0.0000 </r>
       <r>   15.8801    0.0000 </r>
       <r>   18.8119    0.0000 </r>
       <r>   20.0857    0.0000 </r>
      </set>
     </set>
     <set comment="spin 2">
      <set comment="kpoint 1">
       <r>   -6.2207    1.0000 </r>
       <r>    5.7210    1.0000 </r>
       <r>    5.7210    1.0000 </r>
       <r>    5.7210    1.0000 </r>
       <r>    8.2343    0.0000 </r>
       <r>    8.2343    0.0000 </r>
       <r>    8.2343    0.0000 </r>
       <r>    8.9634    0.0000 </r>
       <r>   13.3987    0.0000 </r>
       <r>   13.4042    0.0000 </r>
       <r>   13.4042    0.0000 </r>
       <r>   16.7917    0.0000 </r>
      </set>
      <set comment="kpoint 2">
       <r>   -5.9552    1.0000 </r>
       <r>    3.7765    1.0000 </r>
       <r>    5.3619    1.0000 </r>
       <r>    5.3619    1.0000 </r>
       <r>    8.0802    0.0000 </r>
       <r>    8.7565    0.0000 </r>
       <r>    8.7565    0.0000 </r>
       <r>   10.6401    0.0000 </r>
       <r>   12.8222    0.0000 </r>
       <r>   12.8222    0.0000 </r>
       <r>   14.3777    0.0000 </r>
       <r>   16.1462    0.0000 </r>
      </set>
      <set comment="kpoint 3">
       <r>   -5.1894    1.0000 </r>
       <r>    1.1556    1.0000 </r>
       <r>    4.8469    1.0000 </r>
       <r>    4.8469    1.0000 </r>
       <r>    7.5305    0.0000 </r>
       <r>    9.1996    0.0000 </r>
       <r>    9.1996    0.0000 </r>
       <r>   13.0382    0.0000 </r>
       <r>   13.1074    0.0000 </r>
       <r>   13.1074    0.0000 </r>
       <r>   14.3944    0.0000 </r>
       <r>   18.1129    0.0000 </r>
      </set>
      <set comment="kpoint 4">
       <r>   -4.1463    1.0000 </r>
       <r>   -0.8779    1.0000 </r>
       <r>    4.5599    1.0000 </r>
       <r>    4.5599    1.0000 </r>
       <r>    7.2025    0.0000 </r>
       <r>    9.0374    0.0000 </r>
       <r>    9.0374    0.0000 </r>
       <r>   13.2871    0.0000 </r>
       <r>   15.1286    0.0000 </r>
       <r>   15.1286    0.0000 </r>
       <r>   16.1069    0.0000 </r>
       <r>   18.1907    0.0000 </r>
      </set>
      <set comment="kpoint 5">
       <r>   -5.8654    1.0000 </r>
       <r>    4.0809    1.0000 </r>
       <r>    4.7421    1.0000 </r>
       <r>    4.7421    1.0000 </r>
       <r>    7.5276    0.0000 </r>
       <r>    9.6437    0.0000 </r>
       <r>    9.6437    0.0000 </r>
       <r>   10.0469    0.0000 </r>
       <r>   12.0964    0.0000 </r>
       <r>   13.7976    0.0000 </r>
       <r>   14.7979    0.0000 </r>
       <r>   17.4115    0.0000 </r>
      </set>
      <set comment="kpoint 6">
       <r>   -5.2592    1.0000 </r>
       <r>    1.9551    1.0000 </r>
       <r>    4.1534    1.0000 </r>
       <r>    4.1999    1.0000 </r>
       <r>    7.7179    0.0000 </r>
       <r>    9.5598    0.0000 </r>
       <r>   10.1832    0.0000 </r>
       <r>   10.4208    0.0000 </r>
       <r>   13.7895    0.0000 </r>
       <r>   14.1675    0.0000 </r>
       <r>   15.7228    0.0000 </r>
       <r>   17.5989    0.0000 </r>
      </set>
      <set comment="kpoint 7">
       <r>   -4.2495    1.0000 </r>
       <r>   -0.2324    1.0000 </r>
       <r>    3.4617    1.0000 </r>
       <r>    4.0131    1.0000 </r>
       <r>    7.7739    0.0000 </r>
       <r>    9.4709    0.0000 </r>
       <r>   10.1921    0.0000 </r>
       <r>   11.4084    0.0000 </r>
       <r>   14.9983    0.0000 </r>
       <r>   15.8939    0.0000 </r>
       <r>   16.5278    0.0000 </r>
       <r>   17.8754    0.0000 </r>
      </set>
      <set comment="kpoint 8">
       <r>   -3.6873    1.0000 </r>
       <r>   -1.1008    1.0000 </r>
       <r>    3.0457    1.0000 </r>
       <r>    4.2134    1.0000 </r>
       <r>    7.8758    0.0000 </r>
       <r>    9.3702    0.0000 </r>
       <r>    9.7919    0.0000 </r>
       <r>   13.7588    0.0000 </r>
       <r>   14.2906    0.0000 </r>
       <r>   14.6934    0.0000 </r>
       <r>   16.5411    0.0000 </r>
       <r>   18.7919    0.0000 </r>
      </set>
      <set comment="kpoint 9">
       <r>   -4.6186    1.0000 </r>
       <r>    0.4491    1.0000 </r>
       <r>    3.0469    1.0000 </r>
       <r>    4.7299    1.0000 </r>
       <r>    8.2896    0.0000 </r>
       <r>    9.5601    0.0000 </r>
       <r>    9.5698    0.0000 </r>
       <r>   12.2615    0.0000 </r>
       <r>   12.3983    0.0000 </r>
       <r>   15.3779    0.0000 </r>
       <r>   16.8182    0.0000 </r>
       <r>   17.8098    0.0000 </r>
      </set>
      <set comment="kpoint 10">
       <r>   -5.5195    1.0000 </r>
       <r>    2.5758    1.0000 </r>
       <r>    3.7355    1.0000 </r>
       <r>    5.3251    1.0000 </r>
       <r>    8.7112    0.0000 </r>
       <r>    8.9627    0.0000 </r>
       <r>    9.2021    0.0000 </r>
       <r>   11.2498    0.0000 </r>
       <r>   11.8543    0.0000 </r>
       <r>   14.1700    0.0000 </r>
       <r>   15.5874    0.0000 </r>
       <r>   16.8328    0.0000 </r>
      </set>
      <set comment="kpoint 11">
       <r>   -4.8161    1.0000 </r>
       <r>    1.5609    1.0000 </r>
       <r>    3.5764    1.0000 </r>
       <r>    3.5764    1.0000 </r>
       <r>    6.5566    0.0000 </r>
       <r>    8.2208    0.0000 </r>
       <r>   12.0529    0.0000 </r>
       <r>   12.0529    0.0000 </r>
       <r>   14.4169    0.0000 </r>
       <r>   14.9749    0.0000 </r>
       <r>   17.6531    0.0000 </r>
       <r>   18.9652    0.0000 </r>
      </set>
      <set comment="kpoint 12">
       <r>   -3.9140    1.0000 </r>
       <r>    0.0602    1.0000 </r>
       <r>    2.5822    1.0000 </r>
       <r>    3.3173    1.0000 </r>
       <r>    6.8352    0.0000 </r>
       <r>    8.3205    0.0000 </r>
       <r>   12.2633    0.0000 </r>
       <r>   12.4357    0.0000 </r>
       <r>   16.5552    0.0000 </r>
       <r>   16.8795    0.0000 </r>
       <r>   17.2316    0.0000 </r>
       <r>   17.8577    0.0000 </r>
      </set>
      <set comment="kpoint 13">
       <r>   -2.9922    1.0000 </r>
       <r>   -1.1225    1.0000 </r>
       <r>    1.6200    1.0000 </r>
       <r>    3.4875    1.0000 </r>
       <r>    7.0713    0.0000 </r>
       <r>   10.5671    0.0000 </r>
       <r>   11.9312    0.0000 </r>
       <r>   11.9947    0.0000 </r>
       <r>   14.6665    0.0000 </r>
       <r>   14.7055    0.0000 </r>
       <r>   18.9092    0.0000 </r>
       <r>   19.4054    0.0000 </r>
      </set>
      <set comment="kpoint 14">
       <r>   -3.6442    1.0000 </r>
       <r>   -0.3701    1.0000 </r>
       <r>    1.5432    1.0000 </r>
       <r>    4.0391    1.0000 </r>
       <r>    7.6872    0.0000 </r>
       <r>   11.1161    0.0000 </r>
       <r>   11.4184    0.0000 </r>
       <r>   12.2305    0.0000 </r>
       <r>   12.5280    0.0000 </r>
       <r>   13.7767    0.0000 </r>
       <r>   18.8663    0.0000 </r>
       <r>   19.4521    0.0000 </r>
      </set>
      <set comment="kpoint 15">
       <r>   -3.1312    1.0000 </r>
       <r>   -0.9344    1.0000 </r>
       <r>    2.9453    1.0000 </r>
       <r>    2.9453    1.0000 </r>
       <r>    6.1882    0.0000 </r>
       <r>    6.6979    0.0000 </r>
       <r>   14.6870    0.0000 </r>
       <r>   14.6870    0.0000 </r>
       <r>   16.9260    0.0000 </r>
       <r>   17.3647    0.0000 </r>
       <r>   17.6898    0.0000 </r>
       <r>   17.6898    0.0000 </r>
      </set>
      <set comment="kpoint 16">
       <r>   -2.1789    1.0000 </r>
       <r>   -1.8934    1.0000 </r>
       <r>    2.0312    1.0000 </r>
       <r>    3.0072    1.0000 </r>
       <r>    6.4872    0.0000 </r>
       <r>    7.7617    0.0000 </r>
       <r>   14.4630    0.0000 </r>
       <r>   14.8904    0.0000 </r>
       <r>   15.0826    0.0000 </r>
       <r>   15.3782    0.0000 </r>
       <r>   19.3790    0.0000 </r>
       <r>   19.3984    0.0000 </r>
      </set>
      <set comment="kpoint 17">
       <r>   -4.5071    1.0000 </r>
       <r>    0.8233    1.0000 </r>
       <r>    2.5825    1.0000 </r>
       <r>    3.9236    1.0000 </r>
       <r>    8.2252    0.0000 </r>
       <r>    9.4541    0.0000 </r>
       <r>    9.7879    0.0000 </r>
       <r>   11.7988    0.0000 </r>
       <r>   13.8895    0.0000 </r>
       <r>   16.5427    0.0000 </r>
       <r>   17.0387    0.0000 </r>
       <r>   18.0849    0.0000 </r>
      </set>
      <set comment="kpoint 18">
       <r>   -3.4628    1.0000 </r>
       <r>   -0.7121    1.0000 </r>
       <r>    2.0097    1.0000 </r>
       <r>    3.3810    1.0000 </r>
       <r>    8.7008    0.0000 </r>
       <r>    9.1207    0.0000 </r>
       <r>   11.1004    0.0000 </r>
       <r>   12.2444    0.0000 </r>
       <r>   13.9561    0.0000 </r>
       <r>   15.6174    0.0000 </r>
       <r>   17.7488    0.0000 </r>
       <r>   19.0099    0.0000 </r>
      </set>
      <set comment="kpoint 19">
       <r>   -2.9245    1.0000 </r>
       <r>   -1.0183    1.0000 </r>
       <r>    2.0981    1.0000 </r>
       <r>    2.5124    1.0000 </r>
       <r>    7.8418    0.0000 </r>
       <r>    8.2001    0.0000 </r>
       <r>   11.7936    0.0000 </r>
       <r>   14.3013    0.0000 </r>
       <r>   14.7824    0.0000 </r>
       <r>   16.6940    0.0000 </r>
       <r>   18.0935    0.0000 </r>
       <r>   19.6297    0.0000 </r>
      </set>
      <set comment="kpoint 20">
       <r>   -2.4842    1.0000 </r>
       <r>   -1.4162    1.0000 </r>
       <r>    1.4494    1.0000 </r>
       <r>    2.6045    1.0000 </r>
       <r>    8.3656    0.0000 </r>
       <r>   10.4636    0.0000 </r>
       <r>   11.2919    0.0000 </r>
       <r>   11.4196    0.0000 </r>
       <r>   14.7150    0.0000 </r>
       <r>   15.8803    0.0000 </r>
       <r>   18.8119    0.0000 </r>
       <r>   20.0860    0.0000 </r>
      </set>
     </set>
    </set>
   </array>
  </eigenvalues>
  <separator name="orbital magnetization" >
   <v name="MAGDIPOLOUT">      0.00000000      0.00000000      0.00000000</v>
  </separator>
  <dos>
   <i name="efermi">      5.72666559 </i>
   <total>
    <array>
     <dimension dim="1">gridpoints</dimension>
     <dimension dim="2">spin</dimension>
     <field>energy</field>
     <field>total</field>
     <field>integrated</field>
     <set>
      <set comment="spin 1">
       <r>    -8.2207     0.0000     0.0000 </r>
       <r>    -8.1197     0.0000     0.0000 </r>
       <r>    -8.0187     0.0000     0.0000 </r>
       <r>    -7.9177     0.0000     0.0000 </r>
       <r>    -7.8166     0.0000     0.0000 </r>
       <r>    -7.7156     0.0000     0.0000 </r>
       <r>    -7.6146     0.0000     0.0000 </r>
       <r>    -7.5136     0.0000     0.0000 </r>
       <r>    -7.4126     0.0000     0.0000 </r>
       <r>    -7.3115     0.0000     0.0000 </r>
       <r>    -7.2105     0.0000     0.0000 </r>
       <r>    -7.1095     0.0000     0.0000 </r>
       <r>    -7.0085     0.0000     0.0000 </r>
       <r>    -6.9074     0.0000     0.0000 </r>
       <r>    -6.8064     0.0000     0.0000 </r>
       <r>    -6.7054     0.0000     0.0000 </r>
       <r>    -6.6044     0.0000     0.0000 </r>
       <r>    -6.5034     0.0000     0.0000 </r>
       <r>    -6.4023     0.0000     0.0000 </r>
       <r>    -6.3013     0.0000     0.0000 </r>
       <r>    -6.2003     0.0006     0.0000 </r>
       <r>    -6.0993     0.0206     0.0008 </r>
       <r>    -5.9982     0.0691     0.0051 </r>
       <r>    -5.8972     0.0853     0.0139 </r>
       <r>    -5.7962     0.0973     0.0230 </r>
       <r>    -5.6952     0.1135     0.0337 </r>
       <r>    -5.5942     0.1307     0.0460 </r>
       <r>    -5.4931     0.1488     0.0601 </r>
       <r>    -5.3921     0.1626     0.0759 </r>
       <r>    -5.2911     0.1702     0.0928 </r>
       <r>    -5.1901     0.1774     0.1103 </r>
       <r>    -5.0890     0.1895     0.1288 </r>
       <r>    -4.9880     0.2020     0.1486 </r>
       <r>    -4.8870     0.2149     0.1696 </r>
       <r>    -4.7860     0.2283     0.1920 </r>
       <r>    -4.6850     0.2421     0.2157 </r>
       <r>    -4.5839     0.2550     0.2409 </r>
       <r>    -4.4829     0.2689     0.2673 </r>
       <r>    -4.3819     0.2859     0.2953 </r>
       <r>    -4.2809     0.3048     0.3251 </r>
       <r>    -4.1798     0.3296     0.3571 </r>
       <r>    -4.0788     0.3843     0.3929 </r>
       <r>    -3.9778     0.4262     0.4340 </r>
       <r>    -3.8768     0.4418     0.4781 </r>
       <r>    -3.7758     0.4307     0.5224 </r>
       <r>    -3.6747     0.4072     0.5643 </r>
       <r>    -3.5737     0.4552     0.6084 </r>
       <r>    -3.4727     0.4262     0.6536 </r>
       <r>    -3.3717     0.3906     0.6946 </r>
       <r>    -3.2706     0.3648     0.7327 </r>
       <r>    -3.1696     0.3450     0.7685 </r>
       <r>    -3.0686     0.3334     0.8027 </r>
       <r>    -2.9676     0.3265     0.8361 </r>
       <r>    -2.8666     0.3308     0.8689 </r>
       <r>    -2.7655     0.3308     0.9025 </r>
       <r>    -2.6645     0.3060     0.9349 </r>
       <r>    -2.5635     0.2564     0.9635 </r>
       <r>    -2.4625     0.1369     0.9871 </r>
       <r>    -2.3614     0.0578     0.9954 </r>
       <r>    -2.2604     0.0206     0.9992 </r>
       <r>    -2.1594     0.0000     1.0000 </r>
       <r>    -2.0584     0.0000     1.0000 </r>
       <r>    -1.9573     0.0000     1.0000 </r>
       <r>    -1.8563     0.0067     1.0001 </r>
       <r>    -1.7553     0.0297     1.0019 </r>
       <r>    -1.6543     0.0599     1.0064 </r>
       <r>    -1.5533     0.0972     1.0142 </r>
       <r>    -1.4522     0.1416     1.0262 </r>
       <r>    -1.3512     0.3310     1.0525 </r>
       <r>    -1.2502     0.3692     1.0866 </r>
       <r>    -1.1492     0.4134     1.1263 </r>
       <r>    -1.0481     0.6411     1.1757 </r>
       <r>    -0.9471     0.7881     1.2501 </r>
       <r>    -0.8461     0.7010     1.3259 </r>
       <r>    -0.7451     0.5390     1.3897 </r>
       <r>    -0.6441     0.4116     1.4357 </r>
       <r>    -0.5430     0.3569     1.4743 </r>
       <r>    -0.4420     0.3173     1.5083 </r>
       <r>    -0.3410     0.2924     1.5390 </r>
       <r>    -0.2400     0.2742     1.5675 </r>
       <r>    -0.1389     0.2585     1.5944 </r>
       <r>    -0.0379     0.2438     1.6198 </r>
       <r>     0.0631     0.2301     1.6437 </r>
       <r>     0.1641     0.2167     1.6663 </r>
       <r>     0.2651     0.2042     1.6876 </r>
       <r>     0.3662     0.1926     1.7076 </r>
       <r>     0.4672     0.1795     1.7265 </r>
       <r>     0.5682     0.1587     1.7435 </r>
       <r>     0.6692     0.1435     1.7587 </r>
       <r>     0.7703     0.1338     1.7727 </r>
       <r>     0.8713     0.1290     1.7859 </r>
       <r>     0.9723     0.1251     1.7988 </r>
       <r>     1.0733     0.1214     1.8112 </r>
       <r>     1.1743     0.1178     1.8233 </r>
       <r>     1.2754     0.1142     1.8350 </r>
       <r>     1.3764     0.1107     1.8464 </r>
       <r>     1.4774     0.2259     1.8622 </r>
       <r>     1.5784     0.5649     1.9002 </r>
       <r>     1.6795     0.5756     1.9564 </r>
       <r>     1.7805     0.6205     2.0172 </r>
       <r>     1.8815     0.6141     2.0800 </r>
       <r>     1.9825     0.5573     2.1396 </r>
       <r>     2.0835     0.6079     2.1988 </r>
       <r>     2.1846     0.4945     2.2499 </r>
       <r>     2.2856     0.4876     2.2995 </r>
       <r>     2.3866     0.4790     2.3484 </r>
       <r>     2.4876     0.4684     2.3962 </r>
       <r>     2.5887     0.8826     2.4602 </r>
       <r>     2.6897     0.6540     2.5298 </r>
       <r>     2.7907     0.6767     2.5953 </r>
       <r>     2.8917     0.7502     2.6672 </r>
       <r>     2.9927     0.8833     2.7517 </r>
       <r>     3.0938     0.7508     2.8289 </r>
       <r>     3.1948     0.7411     2.9042 </r>
       <r>     3.2958     0.7318     2.9786 </r>
       <r>     3.3968     0.7270     3.0520 </r>
       <r>     3.4979     0.7302     3.1258 </r>
       <r>     3.5989     0.7245     3.1993 </r>
       <r>     3.6999     0.7163     3.2721 </r>
       <r>     3.8009     0.7034     3.3439 </r>
       <r>     3.9019     0.6856     3.4141 </r>
       <r>     4.0030     0.6658     3.4824 </r>
       <r>     4.1040     0.6549     3.5488 </r>
       <r>     4.2050     0.6619     3.6154 </r>
       <r>     4.3060     0.6240     3.6808 </r>
       <r>     4.4071     0.5579     3.7407 </r>
       <r>     4.5081     0.4674     3.7927 </r>
       <r>     4.6091     0.3835     3.8350 </r>
       <r>     4.7101     0.3119     3.8703 </r>
       <r>     4.8112     0.2415     3.8979 </r>
       <r>     4.9122     0.2080     3.9205 </r>
       <r>     5.0132     0.1817     3.9402 </r>
       <r>     5.1142     0.1597     3.9574 </r>
       <r>     5.2152     0.1420     3.9726 </r>
       <r>     5.3163     0.1287     3.9862 </r>
       <r>     5.4173     0.0517     3.9948 </r>
       <r>     5.5183     0.0231     3.9984 </r>
       <r>     5.6193     0.0058     3.9998 </r>
       <r>     5.7204     0.0000     4.0000 </r>
       <r>     5.8214     0.0000     4.0000 </r>
       <r>     5.9224     0.0000     4.0000 </r>
       <r>     6.0234     0.0000     4.0000 </r>
       <r>     6.1244     0.0000     4.0000 </r>
       <r>     6.2255     0.0138     4.0003 </r>
       <r>     6.3265     0.0431     4.0032 </r>
       <r>     6.4275     0.0607     4.0086 </r>
       <r>     6.5285     0.0779     4.0153 </r>
       <r>     6.6296     0.1092     4.0248 </r>
       <r>     6.7306     0.1337     4.0371 </r>
       <r>     6.8316     0.1523     4.0516 </r>
       <r>     6.9326     0.1812     4.0685 </r>
       <r>     7.0336     0.2102     4.0882 </r>
       <r>     7.1347     0.2395     4.1109 </r>
       <r>     7.2357     0.2780     4.1368 </r>
       <r>     7.3367     0.3395     4.1679 </r>
       <r>     7.4377     0.4163     4.2060 </r>
       <r>     7.5388     0.5084     4.2525 </r>
       <r>     7.6398     0.6456     4.3103 </r>
       <r>     7.7408     0.8432     4.3852 </r>
       <r>     7.8418     0.9482     4.4769 </r>
       <r>     7.9428     0.9889     4.5744 </r>
       <r>     8.0439     1.0223     4.6762 </r>
       <r>     8.1449     0.9794     4.7783 </r>
       <r>     8.2459     0.9406     4.8748 </r>
       <r>     8.3469     0.8387     4.9659 </r>
       <r>     8.4480     0.6467     5.0404 </r>
       <r>     8.5490     0.4617     5.0949 </r>
       <r>     8.6500     0.3080     5.1338 </r>
       <r>     8.7510     0.2515     5.1596 </r>
       <r>     8.8520     0.3213     5.1884 </r>
       <r>     8.9531     0.4016     5.2248 </r>
       <r>     9.0541     0.5031     5.2699 </r>
       <r>     9.1551     0.7670     5.3317 </r>
       <r>     9.2561     1.2126     5.4312 </r>
       <r>     9.3572     1.6908     5.5777 </r>
       <r>     9.4582     1.5636     5.7447 </r>
       <r>     9.5592     0.8015     5.8903 </r>
       <r>     9.6602     0.6903     5.9636 </r>
       <r>     9.7612     0.6779     6.0326 </r>
       <r>     9.8623     0.6644     6.1006 </r>
       <r>     9.9633     0.6257     6.1660 </r>
       <r>    10.0643     0.5618     6.2262 </r>
       <r>    10.1653     0.4803     6.2789 </r>
       <r>    10.2664     0.4550     6.3254 </r>
       <r>    10.3674     0.4579     6.3714 </r>
       <r>    10.4684     0.4724     6.4209 </r>
       <r>    10.5694     0.4721     6.4667 </r>
       <r>    10.6704     0.4306     6.5124 </r>
       <r>    10.7715     0.3895     6.5537 </r>
       <r>    10.8725     0.3611     6.5915 </r>
       <r>    10.9735     0.3454     6.6271 </r>
       <r>    11.0745     0.3425     6.6617 </r>
       <r>    11.1756     0.5812     6.7064 </r>
       <r>    11.2766     0.6484     6.7709 </r>
       <r>    11.3776     0.6633     6.8409 </r>
       <r>    11.4786     0.6230     6.9056 </r>
       <r>    11.5796     0.5736     6.9644 </r>
       <r>    11.6807     0.5789     7.0224 </r>
       <r>    11.7817     0.6098     7.0822 </r>
       <r>    11.8827     0.6755     7.1468 </r>
       <r>    11.9837     0.7891     7.2202 </r>
       <r>    12.0848     0.8816     7.3050 </r>
       <r>    12.1858     0.9382     7.3973 </r>
       <r>    12.2868     0.6273     7.4798 </r>
       <r>    12.3878     0.5978     7.5416 </r>
       <r>    12.4889     0.5987     7.6019 </r>
       <r>    12.5899     0.5901     7.6620 </r>
       <r>    12.6909     0.5768     7.7209 </r>
       <r>    12.7919     0.5604     7.7784 </r>
       <r>    12.8929     0.5485     7.8343 </r>
       <r>    12.9940     0.5358     7.8891 </r>
       <r>    13.0950     0.5195     7.9425 </r>
       <r>    13.1960     0.5033     7.9941 </r>
       <r>    13.2970     0.4918     8.0442 </r>
       <r>    13.3981     0.5006     8.0945 </r>
       <r>    13.4991     0.4948     8.1449 </r>
       <r>    13.6001     0.4768     8.1940 </r>
       <r>    13.7011     0.4465     8.2408 </r>
       <r>    13.8021     0.4358     8.2844 </r>
       <r>    13.9032     0.4717     8.3308 </r>
       <r>    14.0042     0.5745     8.3820 </r>
       <r>    14.1052     0.7116     8.4473 </r>
       <r>    14.2062     0.7100     8.5209 </r>
       <r>    14.3073     0.7207     8.5933 </r>
       <r>    14.4083     0.7477     8.6675 </r>
       <r>    14.5093     0.7924     8.7449 </r>
       <r>    14.6103     0.8101     8.8264 </r>
       <r>    14.7113     0.9051     8.9092 </r>
       <r>    14.8124     1.1633     9.0256 </r>
       <r>    14.9134     0.8192     9.1151 </r>
       <r>    15.0144     0.7623     9.1949 </r>
       <r>    15.1154     0.7291     9.2698 </r>
       <r>    15.2165     0.7489     9.3444 </r>
       <r>    15.3175     0.7510     9.4204 </r>
       <r>    15.4185     0.7294     9.4953 </r>
       <r>    15.5195     0.6946     9.5673 </r>
       <r>    15.6205     0.6535     9.6354 </r>
       <r>    15.7216     0.6587     9.7021 </r>
       <r>    15.8226     0.6315     9.7676 </r>
       <r>    15.9236     0.6509     9.8334 </r>
       <r>    16.0246     0.5828     9.8942 </r>
       <r>    16.1257     0.5526     9.9512 </r>
       <r>    16.2267     0.5744    10.0079 </r>
       <r>    16.3277     0.6088    10.0676 </r>
       <r>    16.4287     0.6522    10.1313 </r>
       <r>    16.5297     0.7035    10.1997 </r>
       <r>    16.6308     0.5465    10.2585 </r>
       <r>    16.7318     0.5188    10.3120 </r>
       <r>    16.8328     0.4784    10.3627 </r>
       <r>    16.9338     0.4231    10.4078 </r>
       <r>    17.0349     0.3973    10.4491 </r>
       <r>    17.1359     0.4045    10.4892 </r>
       <r>    17.2369     0.4633    10.5327 </r>
       <r>    17.3379     0.4765    10.5802 </r>
       <r>    17.4389     0.4882    10.6289 </r>
       <r>    17.5400     0.4833    10.6782 </r>
       <r>    17.6410     0.4738    10.7262 </r>
       <r>    17.7420     0.5890    10.7783 </r>
       <r>    17.8430     0.8450    10.8503 </r>
       <r>    17.9441     0.8629    10.9389 </r>
       <r>    18.0451     0.7971    11.0230 </r>
       <r>    18.1461     0.7136    11.0991 </r>
       <r>    18.2471     0.7175    11.1708 </r>
       <r>    18.3481     0.7276    11.2439 </r>
       <r>    18.4492     0.7204    11.3172 </r>
       <r>    18.5502     0.6959    11.3889 </r>
       <r>    18.6512     0.6542    11.4573 </r>
       <r>    18.7522     0.5951    11.5205 </r>
       <r>    18.8533     0.6761    11.5815 </r>
       <r>    18.9543     0.5262    11.6457 </r>
       <r>    19.0553     0.4592    11.6954 </r>
       <r>    19.1563     0.4031    11.7389 </r>
       <r>    19.2574     0.3565    11.7772 </r>
       <r>    19.3584     0.3196    11.8112 </r>
       <r>    19.4594     0.4287    11.8484 </r>
       <r>    19.5604     0.3971    11.8907 </r>
       <r>    19.6614     0.3071    11.9265 </r>
       <r>    19.7625     0.2243    11.9532 </r>
       <r>    19.8635     0.1590    11.9724 </r>
       <r>    19.9645     0.1113    11.9859 </r>
       <r>    20.0655     0.0811    11.9955 </r>
       <r>    20.1666     0.0289    12.0000 </r>
       <r>    20.2676     0.0000    12.0000 </r>
       <r>    20.3686     0.0000    12.0000 </r>
       <r>    20.4696     0.0000    12.0000 </r>
       <r>    20.5706     0.0000    12.0000 </r>
       <r>    20.6717     0.0000    12.0000 </r>
       <r>    20.7727     0.0000    12.0000 </r>
       <r>    20.8737     0.0000    12.0000 </r>
       <r>    20.9747     0.0000    12.0000 </r>
       <r>    21.0758     0.0000    12.0000 </r>
       <r>    21.1768     0.0000    12.0000 </r>
       <r>    21.2778     0.0000    12.0000 </r>
       <r>    21.3788     0.0000    12.0000 </r>
       <r>    21.4798     0.0000    12.0000 </r>
       <r>    21.5809     0.0000    12.0000 </r>
       <r>    21.6819     0.0000    12.0000 </r>
       <r>    21.7829     0.0000    12.0000 </r>
       <r>    21.8839     0.0000    12.0000 </r>
       <r>    21.9850     0.0000    12.0000 </r>
       <r>    22.0860     0.0000    12.0000 </r>
      </set>
      <set comment="spin 2">
       <r>    -8.2207     0.0000     0.0000 </r>
       <r>    -8.1197     0.0000     0.0000 </r>
       <r>    -8.0187     0.0000     0.0000 </r>
       <r>    -7.9177     0.0000     0.0000 </r>
       <r>    -7.8166     0.0000     0.0000 </r>
       <r>    -7.7156     0.0000     0.0000 </r>
       <r>    -7.6146     0.0000     0.0000 </r>
       <r>    -7.5136     0.0000     0.0000 </r>
       <r>    -7.4126     0.0000     0.0000 </r>
       <r>    -7.3115     0.0000     0.0000 </r>
       <r>    -7.2105     0.0000     0.0000 </r>
       <r>    -7.1095     0.0000     0.0000 </r>
       <r>    -7.0085     0.0000     0.0000 </r>
       <r>    -6.9074     0.0000     0.0000 </r>
       <r>    -6.8064     0.0000     0.0000 </r>
       <r>    -6.7054     0.0000     0.0000 </r>
       <r>    -6.6044     0.0000     0.0000 </r>
       <r>    -6.5034     0.0000     0.0000 </r>
       <r>    -6.4023     0.0000     0.0000 </r>
       <r>    -6.3013     0.0000     0.0000 </r>
       <r>    -6.2003     0.0006     0.0000 </r>
       <r>    -6.0993     0.0206     0.0008 </r>
       <r>    -5.9982     0.0691     0.0051 </r>
       <r>    -5.8972     0.0853     0.0139 </r>
       <r>    -5.7962     0.0973     0.0230 </r>
       <r>    -5.6952     0.1135     0.0337 </r>
       <r>    -5.5942     0.1307     0.0460 </r>
       <r>    -5.4931     0.1488     0.0601 </r>
       <r>    -5.3921     0.1626     0.0759 </r>
       <r>    -5.2911     0.1702     0.0928 </r>
       <r>    -5.1901     0.1774     0.1103 </r>
       <r>    -5.0890     0.1895     0.1288 </r>
       <r>    -4.9880     0.2020     0.1486 </r>
       <r>    -4.8870     0.2149     0.1696 </r>
       <r>    -4.7860     0.2283     0.1920 </r>
       <r>    -4.6850     0.2421     0.2157 </r>
       <r>    -4.5839     0.2550     0.2409 </r>
       <r>    -4.4829     0.2689     0.2673 </r>
       <r>    -4.3819     0.2859     0.2953 </r>
       <r>    -4.2809     0.3048     0.3251 </r>
       <r>    -4.1798     0.3296     0.3571 </r>
       <r>    -4.0788     0.3843     0.3929 </r>
       <r>    -3.9778     0.4262     0.4340 </r>
       <r>    -3.8768     0.4418     0.4781 </r>
       <r>    -3.7758     0.4307     0.5224 </r>
       <r>    -3.6747     0.4072     0.5643 </r>
       <r>    -3.5737     0.4552     0.6084 </r>
       <r>    -3.4727     0.4262     0.6536 </r>
       <r>    -3.3717     0.3906     0.6946 </r>
       <r>    -3.2706     0.3648     0.7327 </r>
       <r>    -3.1696     0.3450     0.7685 </r>
       <r>    -3.0686     0.3334     0.8027 </r>
       <r>    -2.9676     0.3265     0.8361 </r>
       <r>    -2.8666     0.3309     0.8689 </r>
       <r>    -2.7655     0.3308     0.9025 </r>
       <r>    -2.6645     0.3060     0.9349 </r>
       <r>    -2.5635     0.2563     0.9635 </r>
       <r>    -2.4625     0.1369     0.9871 </r>
       <r>    -2.3614     0.0578     0.9954 </r>
       <r>    -2.2604     0.0206     0.9992 </r>
       <r>    -2.1594     0.0000     1.0000 </r>
       <r>    -2.0584     0.0000     1.0000 </r>
       <r>    -1.9573     0.0000     1.0000 </r>
       <r>    -1.8563     0.0067     1.0001 </r>
       <r>    -1.7553     0.0297     1.0019 </r>
       <r>    -1.6543     0.0599     1.0064 </r>
       <r>    -1.5533     0.0972     1.0142 </r>
       <r>    -1.4522     0.1417     1.0263 </r>
       <r>    -1.3512     0.3311     1.0525 </r>
       <r>    -1.2502     0.3692     1.0866 </r>
       <r>    -1.1492     0.4134     1.1263 </r>
       <r>    -1.0481     0.6409     1.1757 </r>
       <r>    -0.9471     0.7881     1.2501 </r>
       <r>    -0.8461     0.7010     1.3259 </r>
       <r>    -0.7451     0.5389     1.3897 </r>
       <r>    -0.6441     0.4116     1.4357 </r>
       <r>    -0.5430     0.3569     1.4744 </r>
       <r>    -0.4420     0.3173     1.5083 </r>
       <r>    -0.3410     0.2924     1.5390 </r>
       <r>    -0.2400     0.2742     1.5676 </r>
       <r>    -0.1389     0.2585     1.5945 </r>
       <r>    -0.0379     0.2438     1.6198 </r>
       <r>     0.0631     0.2301     1.6438 </r>
       <r>     0.1641     0.2167     1.6663 </r>
       <r>     0.2651     0.2042     1.6876 </r>
       <r>     0.3662     0.1926     1.7076 </r>
       <r>     0.4672     0.1795     1.7265 </r>
       <r>     0.5682     0.1587     1.7435 </r>
       <r>     0.6692     0.1435     1.7588 </r>
       <r>     0.7703     0.1338     1.7727 </r>
       <r>     0.8713     0.1290     1.7860 </r>
       <r>     0.9723     0.1251     1.7988 </r>
       <r>     1.0733     0.1214     1.8112 </r>
       <r>     1.1743     0.1178     1.8233 </r>
       <r>     1.2754     0.1142     1.8350 </r>
       <r>     1.3764     0.1107     1.8464 </r>
       <r>     1.4774     0.2255     1.8622 </r>
       <r>     1.5784     0.5647     1.9001 </r>
       <r>     1.6795     0.5755     1.9563 </r>
       <r>     1.7805     0.6205     2.0171 </r>
       <r>     1.8815     0.6142     2.0799 </r>
       <r>     1.9825     0.5575     2.1395 </r>
       <r>     2.0835     0.6091     2.1987 </r>
       <r>     2.1846     0.4945     2.2498 </r>
       <r>     2.2856     0.4877     2.2995 </r>
       <r>     2.3866     0.4790     2.3483 </r>
       <r>     2.4876     0.4685     2.3962 </r>
       <r>     2.5887     0.8815     2.4601 </r>
       <r>     2.6897     0.6539     2.5297 </r>
       <r>     2.7907     0.6767     2.5953 </r>
       <r>     2.8917     0.7501     2.6671 </r>
       <r>     2.9927     0.8845     2.7516 </r>
       <r>     3.0938     0.7509     2.8288 </r>
       <r>     3.1948     0.7412     2.9042 </r>
       <r>     3.2958     0.7319     2.9786 </r>
       <r>     3.3968     0.7270     3.0520 </r>
       <r>     3.4979     0.7303     3.1258 </r>
       <r>     3.5989     0.7246     3.1993 </r>
       <r>     3.6999     0.7164     3.2721 </r>
       <r>     3.8009     0.7034     3.3439 </r>
       <r>     3.9019     0.6856     3.4140 </r>
       <r>     4.0030     0.6659     3.4824 </r>
       <r>     4.1040     0.6550     3.5488 </r>
       <r>     4.2050     0.6620     3.6154 </r>
       <r>     4.3060     0.6241     3.6808 </r>
       <r>     4.4071     0.5579     3.7407 </r>
       <r>     4.5081     0.4674     3.7927 </r>
       <r>     4.6091     0.3835     3.8351 </r>
       <r>     4.7101     0.3119     3.8704 </r>
       <r>     4.8112     0.2414     3.8980 </r>
       <r>     4.9122     0.2080     3.9205 </r>
       <r>     5.0132     0.1817     3.9402 </r>
       <r>     5.1142     0.1597     3.9574 </r>
       <r>     5.2152     0.1420     3.9726 </r>
       <r>     5.3163     0.1287     3.9862 </r>
       <r>     5.4173     0.0517     3.9948 </r>
       <r>     5.5183     0.0230     3.9984 </r>
       <r>     5.6193     0.0058     3.9998 </r>
       <r>     5.7204     0.0000     4.0000 </r>
       <r>     5.8214     0.0000     4.0000 </r>
       <r>     5.9224     0.0000     4.0000 </r>
       <r>     6.0234     0.0000     4.0000 </r>
       <r>     6.1244     0.0000     4.0000 </r>
       <r>     6.2255     0.0138     4.0003 </r>
       <r>     6.3265     0.0431     4.0032 </r>
       <r>     6.4275     0.0607     4.0086 </r>
       <r>     6.5285     0.0779     4.0153 </r>
       <r>     6.6296     0.1092     4.0248 </r>
       <r>     6.7306     0.1337     4.0371 </r>
       <r>     6.8316     0.1523     4.0516 </r>
       <r>     6.9326     0.1811     4.0684 </r>
       <r>     7.0336     0.2102     4.0882 </r>
       <r>     7.1347     0.2395     4.1109 </r>
       <r>     7.2357     0.2780     4.1368 </r>
       <r>     7.3367     0.3395     4.1679 </r>
       <r>     7.4377     0.4162     4.2059 </r>
       <r>     7.5388     0.5083     4.2525 </r>
       <r>     7.6398     0.6454     4.3102 </r>
       <r>     7.7408     0.8428     4.3851 </r>
       <r>     7.8418     0.9481     4.4767 </r>
       <r>     7.9428     0.9888     4.5743 </r>
       <r>     8.0439     1.0222     4.6761 </r>
       <r>     8.1449     0.9795     4.7782 </r>
       <r>     8.2459     0.9406     4.8747 </r>
       <r>     8.3469     0.8389     4.9658 </r>
       <r>     8.4480     0.6469     5.0403 </r>
       <r>     8.5490     0.4618     5.0949 </r>
       <r>     8.6500     0.3081     5.1337 </r>
       <r>     8.7510     0.2514     5.1596 </r>
       <r>     8.8520     0.3210     5.1883 </r>
       <r>     8.9531     0.4013     5.2248 </r>
       <r>     9.0541     0.5023     5.2698 </r>
       <r>     9.1551     0.7660     5.3315 </r>
       <r>     9.2561     1.2119     5.4309 </r>
       <r>     9.3572     1.6904     5.5773 </r>
       <r>     9.4582     1.5635     5.7443 </r>
       <r>     9.5592     0.8115     5.8902 </r>
       <r>     9.6602     0.6903     5.9635 </r>
       <r>     9.7612     0.6778     6.0325 </r>
       <r>     9.8623     0.6644     6.1005 </r>
       <r>     9.9633     0.6258     6.1659 </r>
       <r>    10.0643     0.5620     6.2261 </r>
       <r>    10.1653     0.4806     6.2789 </r>
       <r>    10.2664     0.4551     6.3254 </r>
       <r>    10.3674     0.4579     6.3714 </r>
       <r>    10.4684     0.4725     6.4208 </r>
       <r>    10.5694     0.4720     6.4666 </r>
       <r>    10.6704     0.4306     6.5124 </r>
       <r>    10.7715     0.3895     6.5537 </r>
       <r>    10.8725     0.3611     6.5915 </r>
       <r>    10.9735     0.3454     6.6271 </r>
       <r>    11.0745     0.3425     6.6617 </r>
       <r>    11.1756     0.5807     6.7063 </r>
       <r>    11.2766     0.6486     6.7708 </r>
       <r>    11.3776     0.6635     6.8408 </r>
       <r>    11.4786     0.6231     6.9055 </r>
       <r>    11.5796     0.5737     6.9643 </r>
       <r>    11.6807     0.5790     7.0223 </r>
       <r>    11.7817     0.6100     7.0821 </r>
       <r>    11.8827     0.6757     7.1468 </r>
       <r>    11.9837     0.7892     7.2202 </r>
       <r>    12.0848     0.8815     7.3050 </r>
       <r>    12.1858     0.9382     7.3972 </r>
       <r>    12.2868     0.6272     7.4797 </r>
       <r>    12.3878     0.5977     7.5415 </r>
       <r>    12.4889     0.5986     7.6018 </r>
       <r>    12.5899     0.5900     7.6619 </r>
       <r>    12.6909     0.5768     7.7209 </r>
       <r>    12.7919     0.5604     7.7783 </r>
       <r>    12.8929     0.5484     7.8343 </r>
       <r>    12.9940     0.5357     7.8891 </r>
       <r>    13.0950     0.5194     7.9424 </r>
       <r>    13.1960     0.5032     7.9940 </r>
       <r>    13.2970     0.4921     8.0441 </r>
       <r>    13.3981     0.5008     8.0944 </r>
       <r>    13.4991     0.4948     8.1448 </r>
       <r>    13.6001     0.4767     8.1940 </r>
       <r>    13.7011     0.4464     8.2407 </r>
       <r>    13.8021     0.4359     8.2843 </r>
       <r>    13.9032     0.4717     8.3307 </r>
       <r>    14.0042     0.5748     8.3819 </r>
       <r>    14.1052     0.7119     8.4473 </r>
       <r>    14.2062     0.7103     8.5210 </r>
       <r>    14.3073     0.7210     8.5934 </r>
       <r>    14.4083     0.7479     8.6676 </r>
       <r>    14.5093     0.7924     8.7450 </r>
       <r>    14.6103     0.8102     8.8265 </r>
       <r>    14.7113     0.9050     8.9093 </r>
       <r>    14.8124     1.1628     9.0257 </r>
       <r>    14.9134     0.8188     9.1151 </r>
       <r>    15.0144     0.7621     9.1949 </r>
       <r>    15.1154     0.7293     9.2698 </r>
       <r>    15.2165     0.7490     9.3444 </r>
       <r>    15.3175     0.7511     9.4204 </r>
       <r>    15.4185     0.7294     9.4954 </r>
       <r>    15.5195     0.6946     9.5674 </r>
       <r>    15.6205     0.6533     9.6354 </r>
       <r>    15.7216     0.6586     9.7021 </r>
       <r>    15.8226     0.6316     9.7676 </r>
       <r>    15.9236     0.6510     9.8334 </r>
       <r>    16.0246     0.5829     9.8942 </r>
       <r>    16.1257     0.5531     9.9513 </r>
       <r>    16.2267     0.5748    10.0081 </r>
       <r>    16.3277     0.6090    10.0678 </r>
       <r>    16.4287     0.6522    10.1314 </r>
       <r>    16.5297     0.7021    10.1999 </r>
       <r>    16.6308     0.5464    10.2586 </r>
       <r>    16.7318     0.5188    10.3121 </r>
       <r>    16.8328     0.4784    10.3628 </r>
       <r>    16.9338     0.4232    10.4079 </r>
       <r>    17.0349     0.3974    10.4492 </r>
       <r>    17.1359     0.4048    10.4893 </r>
       <r>    17.2369     0.4636    10.5329 </r>
       <r>    17.3379     0.4766    10.5804 </r>
       <r>    17.4389     0.4883    10.6292 </r>
       <r>    17.5400     0.4832    10.6784 </r>
       <r>    17.6410     0.4740    10.7264 </r>
       <r>    17.7420     0.5895    10.7786 </r>
       <r>    17.8430     0.8442    10.8506 </r>
       <r>    17.9441     0.8625    10.9391 </r>
       <r>    18.0451     0.7965    11.0232 </r>
       <r>    18.1461     0.7134    11.0993 </r>
       <r>    18.2471     0.7174    11.1709 </r>
       <r>    18.3481     0.7275    11.2440 </r>
       <r>    18.4492     0.7204    11.3173 </r>
       <r>    18.5502     0.6959    11.3890 </r>
       <r>    18.6512     0.6542    11.4573 </r>
       <r>    18.7522     0.5952    11.5206 </r>
       <r>    18.8533     0.6792    11.5816 </r>
       <r>    18.9543     0.5258    11.6457 </r>
       <r>    19.0553     0.4585    11.6954 </r>
       <r>    19.1563     0.4027    11.7388 </r>
       <r>    19.2574     0.3565    11.7771 </r>
       <r>    19.3584     0.3198    11.8111 </r>
       <r>    19.4594     0.4304    11.8482 </r>
       <r>    19.5604     0.3989    11.8906 </r>
       <r>    19.6614     0.3075    11.9265 </r>
       <r>    19.7625     0.2244    11.9533 </r>
       <r>    19.8635     0.1589    11.9725 </r>
       <r>    19.9645     0.1110    11.9859 </r>
       <r>    20.0655     0.0807    11.9955 </r>
       <r>    20.1666     0.0289    12.0000 </r>
       <r>    20.2676     0.0000    12.0000 </r>
       <r>    20.3686     0.0000    12.0000 </r>
       <r>    20.4696     0.0000    12.0000 </r>
       <r>    20.5706     0.0000    12.0000 </r>
       <r>    20.6717     0.0000    12.0000 </r>
       <r>    20.7727     0.0000    12.0000 </r>
       <r>    20.8737     0.0000    12.0000 </r>
       <r>    20.9747     0.0000    12.0000 </r>
       <r>    21.0758     0.0000    12.0000 </r>
       <r>    21.1768     0.0000    12.0000 </r>
       <r>    21.2778     0.0000    12.0000 </r>
       <r>    21.3788     0.0000    12.0000 </r>
       <r>    21.4798     0.0000    12.0000 </r>
       <r>    21.5809     0.0000    12.0000 </r>
       <r>    21.6819     0.0000    12.0000 </r>
       <r>    21.7829     0.0000    12.0000 </r>
       <r>    21.8839     0.0000    12.0000 </r>
       <r>    21.9850     0.0000    12.0000 </r>
       <r>    22.0860     0.0000    12.0000 </r>
      </set>
     </set>
    </array>
   </total>
   <partial>
    <array>
     <dimension dim="1">gridpoints</dimension>
     <dimension dim="2">spin</dimension>
     <dimension dim="3">ion</dimension>
     <field>energy</field>
     <field>    s</field>
     <field>   py</field>
     <field>   pz</field>
     <field>   px</field>
     <field>  dxy</field>
     <field>  dyz</field>
     <field>  dz2</field>
     <field>  dxz</field>
     <field>x2-y2</field>
     <set>
      <set comment="ion 1">
       <set comment="spin 1">
        <r>    -8.2207     0.0000     0.0000     0.0000     0.0000     0.0000     0.0000     0.0000     0.0000     0.0000 </r>
        <r>    -8.1197     0.0000     0.0000     0.0000     0.0000     0.0000     0.0000     0.0000     0.0000     0.0000 </r>
[...]
        <r>  0.0002  0.0002  0.0477  0.0011  0.0000  0.0000  0.0000  0.0000  0.0000 </r>
       </set>
      </set>
      <set comment="kpoint 14">
       <set comment="band 1">
        <r>  0.2106  0.0137  0.0000  0.0092  0.0000  0.0000  0.0000  0.0000  0.0000 </r>
        <r>  0.2106  0.0137  0.0000  0.0092  0.0000  0.0000  0.0000  0.0000  0.0000 </r>
       </set>
       <set comment="band 2">
        <r>  0.1648  0.0352  0.0000  0.0380  0.0000  0.0000  0.0000  0.0000  0.0000 </r>
        <r>  0.1648  0.0352  0.0000  0.0380  0.0000  0.0000  0.0000  0.0000  0.0000 </r>
       </set>
       <set comment="band 3">
        <r>  0.0107  0.0755  0.0000  0.0738  0.0000  0.0000  0.0000  0.0000  0.0000 </r>
        <r>  0.0107  0.0755  0.0000  0.0738  0.0000  0.0000  0.0000  0.0000  0.0000 </r>
       </set>
       <set comment="band 4">
        <r>  0.0000  0.0000  0.2068  0.0000  0.0000  0.0000  0.0000  0.0000  0.0000 </r>
        <r>  0.0000  0.0000  0.2068  0.0000  0.0000  0.0000  0.0000  0.0000  0.0000 </r>
       </set>
       <set comment="band 5">
        <r>  0.0584  0.0190  0.0000  0.0344  0.0000  0.0000  0.0000  0.0000  0.0000 </r>
        <r>  0.0584  0.0190  0.0000  0.0344  0.0000  0.0000  0.0000  0.0000  0.0000 </r>
       </set>
       <set comment="band 6">
        <r>  0.0000  0.0000  0.1497  0.0000  0.0000  0.0000  0.0000  0.0000  0.0000 </r>
        <r>  0.0000  0.0000  0.1497  0.0000  0.0000  0.0000  0.0000  0.0000  0.0000 </r>
       </set>
       <set comment="band 7">
        <r>  0.0251  0.0314  0.0000  0.0619  0.0000  0.0000  0.0000  0.0000  0.0000 </r>
        <r>  0.0251  0.0314  0.0000  0.0619  0.0000  0.0000  0.0000  0.0000  0.0000 </r>
       </set>
       <set comment="band 8">
        <r>  0.0728  0.0794  0.0000  0.0561  0.0000  0.0000  0.0000  0.0000  0.0000 </r>
        <r>  0.0728  0.0794  0.0000  0.0561  0.0000  0.0000  0.0000  0.0000  0.0000 </r>
       </set>
       <set comment="band 9">
        <r>  0.0000  0.0000  0.0111  0.0000  0.0000  0.0000  0.0000  0.0000  0.0000 </r>
        <r>  0.0000  0.0000  0.0111  0.0000  0.0000  0.0000  0.0000  0.0000  0.0000 </r>
       </set>
       <set comment="band 10">
        <r>  0.0182  0.0786  0.0000  0.0606  0.0000  0.0000  0.0000  0.0000  0.0000 </r>
        <r>  0.0182  0.0786  0.0000  0.0606  0.0000  0.0000  0.0000  0.0000  0.0000 </r>
       </set>
       <set comment="band 11">
        <r>  0.0242  0.0114  0.0000  0.0094  0.0000  0.0000  0.0000  0.0000  0.0000 </r>
        <r>  0.0242  0.0114  0.0000  0.0094  0.0000  0.0000  0.0000  0.0000  0.0000 </r>
       </set>
       <set comment="band 12">
        <r>  0.0254  0.0141  0.0000  0.0160  0.0000  0.0000  0.0000  0.0000  0.0000 </r>
        <r>  0.0252  0.0139  0.0000  0.0161  0.0000  0.0000  0.0000  0.0000  0.0000 </r>
       </set>
      </set>
      <set comment="kpoint 15">
       <set comment="band 1">
        <r>  0.1980  0.0112  0.0000  0.0223  0.0000  0.0000  0.0000  0.0000  0.0000 </r>
        <r>  0.1980  0.0112  0.0000  0.0223  0.0000  0.0000  0.0000  0.0000  0.0000 </r>
       </set>
       <set comment="band 2">
        <r>  0.1872  0.0193  0.0000  0.0387  0.0000  0.0000  0.0000  0.0000  0.0000 </r>
        <r>  0.1872  0.0193  0.0000  0.0387  0.0000  0.0000  0.0000  0.0000  0.0000 </r>
       </set>
       <set comment="band 3">
        <r>  0.0000  0.1309  0.0000  0.0655  0.0000  0.0000  0.0000  0.0000  0.0000 </r>
        <r>  0.0000  0.1309  0.0000  0.0655  0.0000  0.0000  0.0000  0.0000  0.0000 </r>
       </set>
       <set comment="band 4">
        <r>  0.0000  0.0000  0.1964  0.0000  0.0000  0.0000  0.0000  0.0000  0.0000 </r>
        <r>  0.0000  0.0000  0.1964  0.0000  0.0000  0.0000  0.0000  0.0000  0.0000 </r>
       </set>
       <set comment="band 5">
        <r>  0.0540  0.0138  0.0000  0.0276  0.0000  0.0000  0.0000  0.0000  0.0000 </r>
        <r>  0.0540  0.0138  0.0000  0.0276  0.0000  0.0000  0.0000  0.0000  0.0000 </r>
       </set>
       <set comment="band 6">
        <r>  0.0484  0.0101  0.0000  0.0202  0.0000  0.0000  0.0000  0.0000  0.0000 </r>
        <r>  0.0484  0.0101  0.0000  0.0202  0.0000  0.0000  0.0000  0.0000  0.0000 </r>
       </set>
       <set comment="band 7">
        <r>  0.0000  0.0000  0.1725  0.0000  0.0000  0.0000  0.0000  0.0000  0.0000 </r>
        <r>  0.0000  0.0000  0.1725  0.0000  0.0000  0.0000  0.0000  0.0000  0.0000 </r>
       </set>
       <set comment="band 8">
        <r>  0.0000  0.1150  0.0000  0.0575  0.0000  0.0000  0.0000  0.0000  0.0000 </r>
        <r>  0.0000  0.1150  0.0000  0.0575  0.0000  0.0000  0.0000  0.0000  0.0000 </r>
       </set>
       <set comment="band 9">
        <r>  0.0000  0.0000  0.0000  0.0000  0.0000  0.0000  0.0000  0.0000  0.0000 </r>
        <r>  0.0000  0.0000  0.0000  0.0000  0.0000  0.0000  0.0000  0.0000  0.0000 </r>
       </set>
       <set comment="band 10">
        <r>  0.0957  0.0602  0.0000  0.1204  0.0000  0.0000  0.0000  0.0000  0.0000 </r>
        <r>  0.0958  0.0602  0.0000  0.1204  0.0000  0.0000  0.0000  0.0000  0.0000 </r>
       </set>
       <set comment="band 11">
        <r>  0.0000  0.0223  0.0415  0.0112  0.0000  0.0000  0.0000  0.0000  0.0000 </r>
        <r>  0.0000  0.0223  0.0415  0.0112  0.0000  0.0000  0.0000  0.0000  0.0000 </r>
       </set>
       <set comment="band 12">
        <r>  0.0000  0.0277  0.0334  0.0138  0.0000  0.0000  0.0000  0.0000  0.0000 </r>
        <r>  0.0000  0.0277  0.0334  0.0138  0.0000  0.0000  0.0000  0.0000  0.0000 </r>
       </set>
      </set>
      <set comment="kpoint 16">
       <set comment="band 1">
        <r>  0.2028  0.0142  0.0000  0.0258  0.0000  0.0000  0.0000  0.0000  0.0000 </r>
        <r>  0.2028  0.0142  0.0000  0.0258  0.0000  0.0000  0.0000  0.0000  0.0000 </r>
       </set>
       <set comment="band 2">
        <r>  0.1900  0.0173  0.0000  0.0309  0.0000  0.0000  0.0000  0.0000  0.0000 </r>
        <r>  0.1900  0.0173  0.0000  0.0309  0.0000  0.0000  0.0000  0.0000  0.0000 </r>
       </set>
       <set comment="band 3">
        <r>  0.0024  0.1037  0.0000  0.0618  0.0000  0.0000  0.0000  0.0000  0.0000 </r>
        <r>  0.0024  0.1037  0.0000  0.0618  0.0000  0.0000  0.0000  0.0000  0.0000 </r>
       </set>
       <set comment="band 4">
        <r>  0.0000  0.0000  0.1973  0.0000  0.0000  0.0000  0.0000  0.0000  0.0000 </r>
        <r>  0.0000  0.0000  0.1973  0.0000  0.0000  0.0000  0.0000  0.0000  0.0000 </r>
       </set>
       <set comment="band 5">
        <r>  0.0523  0.0122  0.0000  0.0238  0.0000  0.0000  0.0000  0.0000  0.0000 </r>
        <r>  0.0523  0.0122  0.0000  0.0238  0.0000  0.0000  0.0000  0.0000  0.0000 </r>
       </set>
       <set comment="band 6">
        <r>  0.0378  0.0389  0.0000  0.0305  0.0000  0.0000  0.0000  0.0000  0.0000 </r>
        <r>  0.0378  0.0389  0.0000  0.0305  0.0000  0.0000  0.0000  0.0000  0.0000 </r>
       </set>
       <set comment="band 7">
        <r>  0.0000  0.0000  0.1780  0.0000  0.0000  0.0000  0.0000  0.0000  0.0000 </r>
        <r>  0.0000  0.0000  0.1780  0.0000  0.0000  0.0000  0.0000  0.0000  0.0000 </r>
       </set>
       <set comment="band 8">
        <r>  0.0283  0.1308  0.0000  0.0786  0.0000  0.0000  0.0000  0.0000  0.0000 </r>
        <r>  0.0283  0.1308  0.0000  0.0786  0.0000  0.0000  0.0000  0.0000  0.0000 </r>
       </set>
       <set comment="band 9">
        <r>  0.0232  0.0283  0.0000  0.0533  0.0000  0.0000  0.0000  0.0000  0.0000 </r>
        <r>  0.0232  0.0283  0.0000  0.0533  0.0000  0.0000  0.0000  0.0000  0.0000 </r>
       </set>
       <set comment="band 10">
        <r>  0.0000  0.0000  0.0129  0.0000  0.0000  0.0000  0.0000  0.0000  0.0000 </r>
        <r>  0.0000  0.0000  0.0129  0.0000  0.0000  0.0000  0.0000  0.0000  0.0000 </r>
       </set>
       <set comment="band 11">
        <r>  0.0287  0.0934  0.0002  0.1382  0.0000  0.0000  0.0000  0.0000  0.0000 </r>
        <r>  0.0287  0.0934  0.0002  0.1382  0.0000  0.0000  0.0000  0.0000  0.0000 </r>
       </set>
       <set comment="band 12">
        <r>  0.0001  0.0004  0.0010  0.0006  0.0000  0.0000  0.0000  0.0000  0.0000 </r>
        <r>  0.0001  0.0004  0.0009  0.0006  0.0000  0.0000  0.0000  0.0000  0.0000 </r>
       </set>
      </set>
      <set comment="kpoint 17">
       <set comment="band 1">
        <r>  0.2067  0.0018  0.0017  0.0138  0.0000  0.0000  0.0000  0.0000  0.0000 </r>
        <r>  0.2067  0.0018  0.0017  0.0138  0.0000  0.0000  0.0000  0.0000  0.0000 </r>
       </set>
       <set comment="band 2">
        <r>  0.1559  0.0123  0.0208  0.0549  0.0000  0.0000  0.0000  0.0000  0.0000 </r>
        <r>  0.1559  0.0123  0.0208  0.0549  0.0000  0.0000  0.0000  0.0000  0.0000 </r>
       </set>
       <set comment="band 3">
        <r>  0.0123  0.0327  0.0710  0.0589  0.0000  0.0000  0.0000  0.0000  0.0000 </r>
        <r>  0.0123  0.0327  0.0710  0.0589  0.0000  0.0000  0.0000  0.0000  0.0000 </r>
       </set>
       <set comment="band 4">
        <r>  0.0068  0.1156  0.0660  0.0099  0.0000  0.0000  0.0000  0.0000  0.0000 </r>
        <r>  0.0068  0.1156  0.0660  0.0099  0.0000  0.0000  0.0000  0.0000  0.0000 </r>
       </set>
       <set comment="band 5">
        <r>  0.0291  0.0590  0.0278  0.0180  0.0000  0.0000  0.0000  0.0000  0.0000 </r>
        <r>  0.0291  0.0590  0.0278  0.0180  0.0000  0.0000  0.0000  0.0000  0.0000 </r>
       </set>
       <set comment="band 6">
        <r>  0.0459  0.0041  0.0150  0.0338  0.0000  0.0000  0.0000  0.0000  0.0000 </r>
        <r>  0.0459  0.0041  0.0150  0.0338  0.0000  0.0000  0.0000  0.0000  0.0000 </r>
       </set>
       <set comment="band 7">
        <r>  0.0448  0.0495  0.0482  0.0085  0.0000  0.0000  0.0000  0.0000  0.0000 </r>
        <r>  0.0448  0.0495  0.0482  0.0085  0.0000  0.0000  0.0000  0.0000  0.0000 </r>
       </set>
       <set comment="band 8">
        <r>  0.0065  0.0680  0.0692  0.0138  0.0000  0.0000  0.0000  0.0000  0.0000 </r>
        <r>  0.0065  0.0680  0.0692  0.0138  0.0000  0.0000  0.0000  0.0000  0.0000 </r>
       </set>
       <set comment="band 9">
        <r>  0.0413  0.0066  0.0054  0.0452  0.0000  0.0000  0.0000  0.0000  0.0000 </r>
        <r>  0.0413  0.0066  0.0054  0.0452  0.0000  0.0000  0.0000  0.0000  0.0000 </r>
       </set>
       <set comment="band 10">
        <r>  0.0006  0.0138  0.0324  0.0945  0.0000  0.0000  0.0000  0.0000  0.0000 </r>
        <r>  0.0006  0.0138  0.0324  0.0945  0.0000  0.0000  0.0000  0.0000  0.0000 </r>
       </set>
       <set comment="band 11">
        <r>  0.0523  0.0084  0.0303  0.0767  0.0000  0.0000  0.0000  0.0000  0.0000 </r>
        <r>  0.0525  0.0084  0.0303  0.0768  0.0000  0.0000  0.0000  0.0000  0.0000 </r>
       </set>
       <set comment="band 12">
        <r>  0.0119  0.0010  0.0018  0.0008  0.0000  0.0000  0.0000  0.0000  0.0000 </r>
        <r>  0.0118  0.0010  0.0018  0.0008  0.0000  0.0000  0.0000  0.0000  0.0000 </r>
       </set>
      </set>
      <set comment="kpoint 18">
       <set comment="band 1">
        <r>  0.2121  0.0036  0.0022  0.0181  0.0000  0.0000  0.0000  0.0000  0.0000 </r>
        <r>  0.2121  0.0036  0.0022  0.0181  0.0000  0.0000  0.0000  0.0000  0.0000 </r>
       </set>
       <set comment="band 2">
        <r>  0.1521  0.0109  0.0034  0.0610  0.0000  0.0000  0.0000  0.0000  0.0000 </r>
        <r>  0.1521  0.0109  0.0034  0.0610  0.0000  0.0000  0.0000  0.0000  0.0000 </r>
       </set>
       <set comment="band 3">
        <r>  0.0289  0.0614  0.0518  0.0355  0.0000  0.0000  0.0000  0.0000  0.0000 </r>
        <r>  0.0289  0.0614  0.0518  0.0355  0.0000  0.0000  0.0000  0.0000  0.0000 </r>
       </set>
       <set comment="band 4">
        <r>  0.0023  0.0712  0.1033  0.0104  0.0000  0.0000  0.0000  0.0000  0.0000 </r>
        <r>  0.0023  0.0712  0.1033  0.0104  0.0000  0.0000  0.0000  0.0000  0.0000 </r>
       </set>
       <set comment="band 5">
        <r>  0.0337  0.0282  0.0446  0.0113  0.0000  0.0000  0.0000  0.0000  0.0000 </r>
        <r>  0.0337  0.0282  0.0446  0.0113  0.0000  0.0000  0.0000  0.0000  0.0000 </r>
       </set>
       <set comment="band 6">
        <r>  0.0436  0.0437  0.0398  0.0033  0.0000  0.0000  0.0000  0.0000  0.0000 </r>
        <r>  0.0436  0.0437  0.0398  0.0033  0.0000  0.0000  0.0000  0.0000  0.0000 </r>
       </set>
       <set comment="band 7">
        <r>  0.0324  0.0560  0.0004  0.0378  0.0000  0.0000  0.0000  0.0000  0.0000 </r>
        <r>  0.0324  0.0560  0.0004  0.0378  0.0000  0.0000  0.0000  0.0000  0.0000 </r>
       </set>
       <set comment="band 8">
        <r>  0.0174  0.0636  0.0572  0.0014  0.0000  0.0000  0.0000  0.0000  0.0000 </r>
        <r>  0.0174  0.0636  0.0572  0.0014  0.0000  0.0000  0.0000  0.0000  0.0000 </r>
       </set>
       <set comment="band 9">
        <r>  0.0138  0.0108  0.0346  0.0744  0.0000  0.0000  0.0000  0.0000  0.0000 </r>
        <r>  0.0138  0.0108  0.0346  0.0744  0.0000  0.0000  0.0000  0.0000  0.0000 </r>
       </set>
       <set comment="band 10">
        <r>  0.0164  0.0012  0.0174  0.0674  0.0000  0.0000  0.0000  0.0000  0.0000 </r>
        <r>  0.0164  0.0012  0.0174  0.0674  0.0000  0.0000  0.0000  0.0000  0.0000 </r>
       </set>
       <set comment="band 11">
        <r>  0.0206  0.0091  0.0104  0.0175  0.0000  0.0000  0.0000  0.0000  0.0000 </r>
        <r>  0.0206  0.0091  0.0104  0.0175  0.0000  0.0000  0.0000  0.0000  0.0000 </r>
       </set>
       <set comment="band 12">
        <r>  0.0190  0.0107  0.0370  0.0587  0.0000  0.0000  0.0000  0.0000  0.0000 </r>
        <r>  0.0189  0.0106  0.0370  0.0588  0.0000  0.0000  0.0000  0.0000  0.0000 </r>
       </set>
      </set>
      <set comment="kpoint 19">
       <set comment="band 1">
        <r>  0.2030  0.0078  0.0020  0.0233  0.0000  0.0000  0.0000  0.0000  0.0000 </r>
        <r>  0.2030  0.0078  0.0020  0.0233  0.0000  0.0000  0.0000  0.0000  0.0000 </r>
       </set>
       <set comment="band 2">
        <r>  0.1926  0.0149  0.0062  0.0345  0.0000  0.0000  0.0000  0.0000  0.0000 </r>
        <r>  0.1926  0.0149  0.0062  0.0345  0.0000  0.0000  0.0000  0.0000  0.0000 </r>
       </set>
       <set comment="band 3">
        <r>  0.0069  0.0313  0.0725  0.0591  0.0000  0.0000  0.0000  0.0000  0.0000 </r>
        <r>  0.0069  0.0313  0.0725  0.0591  0.0000  0.0000  0.0000  0.0000  0.0000 </r>
       </set>
       <set comment="band 4">
        <r>  0.0000  0.0893  0.0729  0.0104  0.0000  0.0000  0.0000  0.0000  0.0000 </r>
        <r>  0.0000  0.0893  0.0729  0.0104  0.0000  0.0000  0.0000  0.0000  0.0000 </r>
       </set>
       <set comment="band 5">
        <r>  0.0366  0.0465  0.0259  0.0080  0.0000  0.0000  0.0000  0.0000  0.0000 </r>
        <r>  0.0366  0.0465  0.0259  0.0080  0.0000  0.0000  0.0000  0.0000  0.0000 </r>
       </set>
       <set comment="band 6">
        <r>  0.0363  0.0050  0.0219  0.0358  0.0000  0.0000  0.0000  0.0000  0.0000 </r>
        <r>  0.0363  0.0050  0.0219  0.0358  0.0000  0.0000  0.0000  0.0000  0.0000 </r>
       </set>
       <set comment="band 7">
        <r>  0.0323  0.0627  0.0442  0.0072  0.0000  0.0000  0.0000  0.0000  0.0000 </r>
        <r>  0.0323  0.0627  0.0442  0.0072  0.0000  0.0000  0.0000  0.0000  0.0000 </r>
       </set>
       <set comment="band 8">
        <r>  0.0168  0.0239  0.0669  0.0681  0.0000  0.0000  0.0000  0.0000  0.0000 </r>
        <r>  0.0168  0.0239  0.0669  0.0680  0.0000  0.0000  0.0000  0.0000  0.0000 </r>
       </set>
       <set comment="band 9">
        <r>  0.0001  0.0490  0.0354  0.0174  0.0000  0.0000  0.0000  0.0000  0.0000 </r>
        <r>  0.0001  0.0490  0.0354  0.0174  0.0000  0.0000  0.0000  0.0000  0.0000 </r>
       </set>
       <set comment="band 10">
        <r>  0.0288  0.0103  0.0067  0.0755  0.0000  0.0000  0.0000  0.0000  0.0000 </r>
        <r>  0.0288  0.0103  0.0067  0.0755  0.0000  0.0000  0.0000  0.0000  0.0000 </r>
       </set>
       <set comment="band 11">
        <r>  0.0071  0.0397  0.0538  0.0152  0.0000  0.0000  0.0000  0.0000  0.0000 </r>
        <r>  0.0071  0.0397  0.0538  0.0152  0.0000  0.0000  0.0000  0.0000  0.0000 </r>
       </set>
       <set comment="band 12">
        <r>  0.0054  0.0493  0.0055  0.0647  0.0000  0.0000  0.0000  0.0000  0.0000 </r>
        <r>  0.0047  0.0498  0.0050  0.0692  0.0000  0.0000  0.0000  0.0000  0.0000 </r>
       </set>
      </set>
      <set comment="kpoint 20">
       <set comment="band 1">
        <r>  0.2120  0.0142  0.0033  0.0157  0.0000  0.0000  0.0000  0.0000  0.0000 </r>
        <r>  0.2120  0.0142  0.0033  0.0157  0.0000  0.0000  0.0000  0.0000  0.0000 </r>
       </set>
       <set comment="band 2">
        <r>  0.1907  0.0215  0.0028  0.0284  0.0000  0.0000  0.0000  0.0000  0.0000 </r>
        <r>  0.1907  0.0215  0.0028  0.0284  0.0000  0.0000  0.0000  0.0000  0.0000 </r>
       </set>
       <set comment="band 3">
        <r>  0.0008  0.0850  0.0005  0.0680  0.0000  0.0000  0.0000  0.0000  0.0000 </r>
        <r>  0.0008  0.0850  0.0005  0.0680  0.0000  0.0000  0.0000  0.0000  0.0000 </r>
       </set>
       <set comment="band 4">
        <r>  0.0030  0.0073  0.1496  0.0145  0.0000  0.0000  0.0000  0.0000  0.0000 </r>
        <r>  0.0030  0.0073  0.1496  0.0145  0.0000  0.0000  0.0000  0.0000  0.0000 </r>
       </set>
       <set comment="band 5">
        <r>  0.0351  0.0107  0.0476  0.0176  0.0000  0.0000  0.0000  0.0000  0.0000 </r>
        <r>  0.0351  0.0107  0.0476  0.0176  0.0000  0.0000  0.0000  0.0000  0.0000 </r>
       </set>
       <set comment="band 6">
        <r>  0.0030  0.0425  0.0230  0.0214  0.0000  0.0000  0.0000  0.0000  0.0000 </r>
        <r>  0.0030  0.0425  0.0230  0.0214  0.0000  0.0000  0.0000  0.0000  0.0000 </r>
       </set>
       <set comment="band 7">
        <r>  0.0463  0.0269  0.0551  0.0391  0.0000  0.0000  0.0000  0.0000  0.0000 </r>
        <r>  0.0463  0.0269  0.0551  0.0391  0.0000  0.0000  0.0000  0.0000  0.0000 </r>
       </set>
       <set comment="band 8">
        <r>  0.0388  0.0519  0.0012  0.0414  0.0000  0.0000  0.0000  0.0000  0.0000 </r>
        <r>  0.0388  0.0519  0.0012  0.0414  0.0000  0.0000  0.0000  0.0000  0.0000 </r>
       </set>
       <set comment="band 9">
        <r>  0.0067  0.0232  0.0712  0.0463  0.0000  0.0000  0.0000  0.0000  0.0000 </r>
        <r>  0.0067  0.0232  0.0712  0.0463  0.0000  0.0000  0.0000  0.0000  0.0000 </r>
       </set>
       <set comment="band 10">
        <r>  0.0187  0.0575  0.0111  0.0297  0.0000  0.0000  0.0000  0.0000  0.0000 </r>
        <r>  0.0187  0.0575  0.0111  0.0297  0.0000  0.0000  0.0000  0.0000  0.0000 </r>
       </set>
       <set comment="band 11">
        <r>  0.0109  0.0445  0.0061  0.0750  0.0000  0.0000  0.0000  0.0000  0.0000 </r>
        <r>  0.0109  0.0444  0.0061  0.0750  0.0000  0.0000  0.0000  0.0000  0.0000 </r>
       </set>
       <set comment="band 12">
        <r>  0.0075  0.0305  0.0589  0.0310  0.0000  0.0000  0.0000  0.0000  0.0000 </r>
        <r>  0.0072  0.0308  0.0592  0.0308  0.0000  0.0000  0.0000  0.0000  0.0000 </r>
       </set>
      </set>
     </set>
    </set>
   </array>
  </projected>
 </calculation>
 <structure name="finalpos" >
  <crystal>
   <varray name="basis" >
    <v>       3.33357300       0.00000000       1.92463900 </v>
    <v>       1.11119100       3.14292400       1.92463900 </v>
    <v>       0.00000000       0.00000000       3.84927800 </v>
   </varray>
   <i name="volume">     40.32952680 </i>
   <varray name="rec_basis" >
    <v>       0.29997843      -0.10605835       0.00000000 </v>
    <v>       0.00000000       0.31817505       0.00000000 </v>
    <v>      -0.14998922      -0.10605835       0.25978898 </v>
   </varray>
  </crystal>
  <varray name="positions" >
   <v>       0.87500000       0.87500000       0.87500000 </v>
   <v>       0.12500000       0.12500000       0.12500000 </v>
  </varray>
 </structure>
</modeling>
