 vasp.6.4.2 20Jul23 (build Mar 15 2024 16:31:38) complex                        
  
 executed on             LinuxIFC date 2025.04.01  23:16:32
 running  120 mpi-ranks, on    3 nodes
 distrk:  each k-point on  120 cores,    1 groups
 distr:  one band on NCORE=  20 cores,    6 groups


--------------------------------------------------------------------------------------------------------


 INCAR:
   ALGO = Normal
   CSHIFT = 1e-05
   EDIFF = 1e-05
   ENAUG = 1360
   ENCUT = 680
   GGA = Pe
   HFSCREEN = 0.2
   ISMEAR = -5
   ISPIN = 1
   LAECHG = True
   LASPH = True
   LCHARG = False
   LDAU = False
   LELF = False
   LHFCALC = True
   LMAXMIX = 4
   LMIXTAU = True
   LOPTICS = True
   LORBIT = 11
   LREAL = False
   LVTOT = True
   LWAVE = False
   NBANDS = 144
   NCORE = 20
   NEDOS = 1834
   NELM = 200
   NELMIN = 5
   NSW = 0
   PREC = Accurate
   PRECFOCK = Accurate
   SIGMA = 0.05

 POTCAR:    PAW_PBE Rb_sv 06Sep2000               
 POTCAR:    PAW_PBE Al 04Jan2001                  
 POTCAR:    PAW_PBE O 08Apr2002                   
 WARNING: For LVTOT=.TRUE., VASP.5.x writes the TOTAL local potential to the
     file LOCPOT. If you want only the Hartree contributions, use LVHAR=.TRUE.
     instead. 

 POTCAR:    PAW_PBE Rb_sv 06Sep2000               
   VRHFIN =Rb: 4s4p5s                                                                               
   LEXCH  = PE                                                                                      
   EATOM  =   662.5034 eV,   48.6926 Ry                                                             
                                                                                                    
   TITEL  = PAW_PBE Rb_sv 06Sep2000                                                                 
   LULTRA =        F    use ultrasoft PP ?                                                          
   IUNSCR =        1    unscreen: 0-lin 1-nonlin 2-no                                               
   RPACOR =    2.200    partial core radius                                                         
   POMASS =   85.468; ZVAL   =    9.000    mass and valenz                                          
   RCORE  =    2.500    outmost cutoff radius                                                       
   RWIGS  =    4.570; RWIGS  =    2.418    wigner-seitz radius (au A)                               
   ENMAX  =  220.112; ENMIN  =  165.084 eV                                                          
   RCLOC  =    2.200    cutoff for local pot                                                        
   LCOR   =        T    correct aug charges                                                         
   LPAW   =        T    paw PP                                                                      
   EAUG   =  423.861                                                                                
   DEXC   =    0.000                                                                                
   RMAX   =    2.546    core radius for proj-oper                                                   
   RAUG   =    1.300    factor for augmentation sphere                                              
   RDEP   =    2.541    radius for radial grids                                                     
   RDEPT  =    2.044    core radius for aug-charge                                                  
                                                                                                    
   Atomic configuration                                                                             
   10 entries                                                                                       
     n  l   j            E        occ.                                                              
     1  0  0.50    -15031.5419   2.0000                                                             
     2  0  0.50     -2007.8842   2.0000                                                             
     2  1  1.50     -1779.8144   6.0000                                                             
     3  0  0.50      -297.9619   2.0000                                                             
     3  1  1.50      -224.8335   6.0000                                                             
     3  2  2.50      -103.9539  10.0000                                                             
     4  0  0.50       -31.8932   2.0000                                                             
     5  0  0.50        -2.2327   0.9990                                                             
     4  1  1.50       -15.9645   6.0000                                                             
     4  2  1.50        -0.0020   0.0010                                                             
   Description                                                                                      
     l       E           TYP  RCUT    TYP  RCUT                                                     
     0    -31.8932387     23  2.500                                                                 
     0     -2.2326525     23  2.500                                                                 
     1    -15.9644597     23  2.500                                                                 
     1    -17.3250423     23  2.500                                                                 
     2     -0.0020100     23  2.500                                                                 
  local pseudopotential read in
  partial core-charges read in
  partial kinetic energy density read in
  atomic valenz-charges read in
  non local Contribution for L=           0  read in
    real space projection operators read in
  non local Contribution for L=           0  read in
    real space projection operators read in
  non local Contribution for L=           1  read in
    real space projection operators read in
  non local Contribution for L=           1  read in
    real space projection operators read in
  non local Contribution for L=           2  read in
    real space projection operators read in
    PAW grid and wavefunctions read in
 
   number of l-projection  operators is LMAX  =           5
   number of lm-projection operators is LMMAX =          13
 
 POTCAR:    PAW_PBE Al 04Jan2001                  
   VRHFIN =Al: s2p1                                                                                 
   LEXCH  = PE                                                                                      
   EATOM  =    53.5387 eV,    3.9350 Ry                                                             
                                                                                                    
   TITEL  = PAW_PBE Al 04Jan2001                                                                    
   LULTRA =        F    use ultrasoft PP ?                                                          
   IUNSCR =        1    unscreen: 0-lin 1-nonlin 2-no                                               
   RPACOR =    1.500    partial core radius                                                         
   POMASS =   26.981; ZVAL   =    3.000    mass and valenz                                          
   RCORE  =    1.900    outmost cutoff radius                                                       
   RWIGS  =    2.650; RWIGS  =    1.402    wigner-seitz radius (au A)                               
   ENMAX  =  240.300; ENMIN  =  180.225 eV                                                          
   ICORE  =        2    local potential                                                             
   LCOR   =        T    correct aug charges                                                         
   LPAW   =        T    paw PP                                                                      
   EAUG   =  291.052                                                                                
   DEXC   =    0.000                                                                                
   RMAX   =    1.939    core radius for proj-oper                                                   
   RAUG   =    1.300    factor for augmentation sphere                                              
   RDEP   =    1.966    radius for radial grids                                                     
   RDEPT  =    1.856    core radius for aug-charge                                                  
                                                                                                    
   Atomic configuration                                                                             
    6 entries                                                                                       
     n  l   j            E        occ.                                                              
     1  0  0.50     -1511.1048   2.0000                                                             
     2  0  0.50      -108.1629   2.0000                                                             
     2  1  1.50       -69.6402   6.0000                                                             
     3  0  0.50        -7.7528   2.0000                                                             
     3  1  1.50        -2.7121   1.0000                                                             
     3  2  2.50        -2.7212   0.0000                                                             
   Description                                                                                      
     l       E           TYP  RCUT    TYP  RCUT                                                     
     0     -7.7528455     23  1.900                                                                 
     0     -3.3096929     23  1.900                                                                 
     1     -2.7120682     23  1.900                                                                 
     1     13.6058260     23  1.900                                                                 
     2     -2.7211652      7  1.900                                                                 
  local pseudopotential read in
  partial core-charges read in
  partial kinetic energy density read in
  atomic valenz-charges read in
  non local Contribution for L=           0  read in
    real space projection operators read in
  non local Contribution for L=           0  read in
    real space projection operators read in
  non local Contribution for L=           1  read in
    real space projection operators read in
  non local Contribution for L=           1  read in
    real space projection operators read in
    PAW grid and wavefunctions read in
 
   number of l-projection  operators is LMAX  =           4
   number of lm-projection operators is LMMAX =           8
 
 POTCAR:    PAW_PBE O 08Apr2002                   
   VRHFIN =O: s2p4                                                                                  
   LEXCH  = PE                                                                                      
   EATOM  =   432.3788 eV,   31.7789 Ry                                                             
                                                                                                    
   TITEL  = PAW_PBE O 08Apr2002                                                                     
   LULTRA =        F    use ultrasoft PP ?                                                          
   IUNSCR =        1    unscreen: 0-lin 1-nonlin 2-no                                               
   RPACOR =    1.200    partial core radius                                                         
   POMASS =   16.000; ZVAL   =    6.000    mass and valenz                                          
   RCORE  =    1.520    outmost cutoff radius                                                       
   RWIGS  =    1.550; RWIGS  =    0.820    wigner-seitz radius (au A)                               
   ENMAX  =  400.000; ENMIN  =  300.000 eV                                                          
   ICORE  =        2    local potential                                                             
   LCOR   =        T    correct aug charges                                                         
   LPAW   =        T    paw PP                                                                      
   EAUG   =  605.392                                                                                
   DEXC   =    0.000                                                                                
   RMAX   =    1.553    core radius for proj-oper                                                   
   RAUG   =    1.300    factor for augmentation sphere                                              
   RDEP   =    1.550    radius for radial grids                                                     
   RDEPT  =    1.329    core radius for aug-charge                                                  
                                                                                                    
   Atomic configuration                                                                             
    4 entries                                                                                       
     n  l   j            E        occ.                                                              
     1  0  0.50      -514.6923   2.0000                                                             
     2  0  0.50       -23.9615   2.0000                                                             
     2  1  0.50        -9.0305   4.0000                                                             
     3  2  1.50        -9.5241   0.0000                                                             
   Description                                                                                      
     l       E           TYP  RCUT    TYP  RCUT                                                     
     0    -23.9615318     23  1.200                                                                 
     0     -9.5240782     23  1.200                                                                 
     1     -9.0304911     23  1.520                                                                 
     1      8.1634956     23  1.520                                                                 
     2     -9.5240782      7  1.500                                                                 
  local pseudopotential read in
  partial core-charges read in
  partial kinetic energy density read in
  kinetic energy density of atom read in
  atomic valenz-charges read in
  non local Contribution for L=           0  read in
    real space projection operators read in
  non local Contribution for L=           0  read in
    real space projection operators read in
  non local Contribution for L=           1  read in
    real space projection operators read in
  non local Contribution for L=           1  read in
    real space projection operators read in
    PAW grid and wavefunctions read in
 
   number of l-projection  operators is LMAX  =           4
   number of lm-projection operators is LMMAX =           8
 
 -----------------------------------------------------------------------------
|                                                                             |
|               ----> ADVICE to this user running VASP <----                  |
|                                                                             |
|     You have a (more or less) 'large supercell' and for larger cells it     |
|     might be more efficient to use real-space projection operators.         |
|     Therefore, try LREAL= Auto in the INCAR file.                           |
|     Mind: For very accurate calculation, you might also keep the            |
|     reciprocal projection scheme (i.e. LREAL=.FALSE.).                      |
|                                                                             |
 -----------------------------------------------------------------------------

  PAW_PBE Rb_sv 06Sep2000               :
 energy of atom  1       EATOM= -662.5034
 kinetic energy error for atom=    0.0003 (will be added to EATOM!!)
  PAW_PBE Al 04Jan2001                  :
 energy of atom  2       EATOM=  -53.5387
 kinetic energy error for atom=    0.0001 (will be added to EATOM!!)
  PAW_PBE O 08Apr2002                   :
 energy of atom  3       EATOM= -432.3788
 kinetic energy error for atom=    0.0105 (will be added to EATOM!!)
 
 
 POSCAR: Rb12 Al4 O12
  positions in direct lattice
  No initial velocities read in
 exchange correlation table for  LEXCH =        8
   RHO(1)=    0.500       N(1)  =     2000
   RHO(2)=  100.500       N(2)  =     4000
 


--------------------------------------------------------------------------------------------------------


 ion  position               nearest neighbor table
   1  0.000  0.267  0.000-  21 2.81  24 2.81  26 2.94  27 2.94  17 3.30  18 3.30  13 3.31  14 3.31
                             5 3.46   5 3.46  12 3.51  11 3.51   4 3.63   4 3.63  19 3.86  20 3.86
   2  0.000  0.733  0.000-  22 2.81  23 2.81  28 2.94  25 2.94  17 3.30  18 3.30  13 3.31  14 3.31
                             6 3.46   6 3.46  11 3.51  12 3.51   3 3.63   3 3.63  19 3.86  20 3.86
   3  0.500  0.767  0.000-  25 2.81  28 2.81  22 2.94  23 2.94  19 3.30  20 3.30  15 3.31  16 3.31
                             7 3.46   7 3.46  10 3.51   9 3.51   2 3.63   2 3.63  17 3.86  18 3.86
   4  0.500  0.233  0.000-  26 2.81  27 2.81  24 2.94  21 2.94  19 3.30  20 3.30  15 3.31  16 3.31
                             8 3.46   8 3.46   9 3.51  10 3.51   1 3.63   1 3.63  17 3.86  18 3.86
   5  0.000  0.198  0.500-  26 2.80  27 2.80  21 2.95  24 2.95  17 3.29  18 3.29   9 3.46  10 3.46
                             1 3.46   1 3.46  14 3.66  13 3.66  11 3.76  12 3.76   8 3.80   8 3.80
   6  0.000  0.802  0.500-  25 2.80  28 2.80  22 2.95  23 2.95  17 3.29  18 3.29   9 3.46  10 3.46
                             2 3.46   2 3.46  14 3.66  13 3.66  12 3.76  11 3.76   7 3.80   7 3.80
   7  0.500  0.698  0.500-  22 2.80  23 2.80  25 2.95  28 2.95  19 3.29  20 3.29  11 3.46  12 3.46
                             3 3.46   3 3.46  16 3.66  15 3.66   9 3.76  10 3.76   6 3.80   6 3.80
   8  0.500  0.302  0.500-  21 2.80  24 2.80  26 2.95  27 2.95  19 3.29  20 3.29  11 3.46  12 3.46
                             4 3.46   4 3.46  16 3.66  15 3.66  10 3.76   9 3.76   5 3.80   5 3.80
   9  0.630  0.000  0.348-  18 2.69  23 2.88  24 2.88  21 2.93  22 2.93  10 3.10  14 3.35  13 3.38
                             6 3.46   5 3.46   4 3.51   3 3.51   7 3.76   8 3.76  13 4.00  14 4.34
  10  0.370  0.000  0.652-  17 2.69  21 2.88  22 2.88  23 2.93  24 2.93   9 3.10  13 3.35  14 3.38
                             5 3.46   6 3.46   3 3.51   4 3.51   8 3.76   7 3.76  14 4.00  13 4.34
  11  0.130  0.500  0.348-  20 2.69  27 2.88  28 2.88  25 2.93  26 2.93  12 3.10  16 3.35  15 3.38
                             8 3.46   7 3.46   2 3.51   1 3.51   5 3.76   6 3.76  15 4.00  16 4.34
  12  0.870  0.500  0.652-  19 2.69  25 2.88  26 2.88  27 2.93  28 2.93  11 3.10  15 3.35  16 3.38
                             7 3.46   8 3.46   1 3.51   2 3.51   6 3.76   5 3.76  16 4.00  15 4.34
  13  0.843  0.000  0.853-  21 1.77  22 1.77  17 1.84  18 1.84  14 2.63   2 3.31   1 3.31  10 3.35
                             9 3.38   6 3.66   5 3.66   3 3.91   4 3.91   9 4.00  10 4.34   7 4.55
  14  0.157  0.000  0.147-  23 1.77  24 1.77  18 1.84  17 1.84  13 2.63   2 3.31   1 3.31   9 3.35
                            10 3.38   5 3.66   6 3.66   4 3.91   3 3.91  10 4.00   9 4.34   7 4.55
  15  0.343  0.500  0.853-  25 1.77  26 1.77  19 1.84  20 1.84  16 2.63   4 3.31   3 3.31  12 3.35
                            11 3.38   8 3.66   7 3.66   1 3.91   2 3.91  11 4.00  12 4.34   5 4.55
  16  0.657  0.500  0.147-  27 1.77  28 1.77  20 1.84  19 1.84  15 2.63   4 3.31   3 3.31  11 3.35
                            12 3.38   7 3.66   8 3.66   2 3.91   1 3.91  12 4.00  11 4.34   5 4.55
  17  0.100  0.000  0.866-  13 1.84  14 1.84  10 2.69   6 3.29   5 3.29   2 3.30   1 3.30   4 3.86
                             3 3.86
  18  0.900  0.000  0.134-  14 1.84  13 1.84   9 2.69   6 3.29   5 3.29   2 3.30   1 3.30   4 3.86
                             3 3.86
  19  0.600  0.500  0.866-  15 1.84  16 1.84  12 2.69   8 3.29   7 3.29   4 3.30   3 3.30   2 3.86
                             1 3.86
  20  0.400  0.500  0.134-  16 1.84  15 1.84  11 2.69   8 3.29   7 3.29   4 3.30   3 3.30   2 3.86
                             1 3.86
  21  0.725  0.128  0.737-  13 1.77   8 2.80   1 2.81  10 2.88   9 2.93   4 2.94   5 2.95
  22  0.725  0.872  0.737-  13 1.77   7 2.80   2 2.81  10 2.88   9 2.93   3 2.94   6 2.95
  23  0.275  0.872  0.263-  14 1.77   7 2.80   2 2.81   9 2.88  10 2.93   3 2.94   6 2.95
  24  0.275  0.128  0.263-  14 1.77   8 2.80   1 2.81   9 2.88  10 2.93   4 2.94   5 2.95
  25  0.225  0.628  0.737-  15 1.77   6 2.80   3 2.81  12 2.88  11 2.93   2 2.94   7 2.95
  26  0.225  0.372  0.737-  15 1.77   5 2.80   4 2.81  12 2.88  11 2.93   1 2.94   8 2.95
  27  0.775  0.372  0.263-  16 1.77   5 2.80   4 2.81  11 2.88  12 2.93   1 2.94   8 2.95
  28  0.775  0.628  0.263-  16 1.77   6 2.80   3 2.81  11 2.88  12 2.93   2 2.94   7 2.95
 
  LATTYP: Found a simple monoclinic cell.
 ALAT       =     6.7512585294
 B/A-ratio  =     1.6836074604
 C/A-ratio  =     1.0693602023
 COS(beta)  =    -0.2428944534
  
  Lattice vectors:
  
 A1 = (   0.0005261186,   0.0000000000,   6.7512585089)
 A2 = (   0.0000000000, -11.3664692270,  -0.0000000000)
 A3 = (   7.0031853271,   0.0000000000,  -1.7541288661)


Analysis of symmetry for initial positions (statically):
=====================================================================
 Subroutine PRICEL returns following result:
 
  LATTYP: Found a base centered monoclinic cell.
 ALAT       =     7.2195271871
 B/A-ratio  =     1.5744063195
 C/A-ratio  =     0.9351385976
 COS(beta)  =    -0.2428944534
  
  Lattice vectors:
  
 A1 = (   3.5015926636,  -5.6832346135,  -0.8770644330)
 A2 = (   3.5015926636,   5.6832346135,  -0.8770644330)
 A3 = (   0.0005261186,   0.0000000000,   6.7512585089)
 
   2 primitive cells build up your supercell.
 

 Routine SETGRP: Setting up the symmetry group for a 
 simple monoclinic supercell.


 Subroutine GETGRP returns: Found  4 space group operations
 (whereof  4 operations were pure point group operations)
 out of a pool of  4 trial point group operations.


The static configuration has the point symmetry C_2h.


Analysis of symmetry for dynamics (positions and initial velocities):
=====================================================================
 Subroutine PRICEL returns following result:
 
  LATTYP: Found a base centered monoclinic cell.
 ALAT       =     7.2195271871
 B/A-ratio  =     1.5744063195
 C/A-ratio  =     0.9351385976
 COS(beta)  =    -0.2428944534
  
  Lattice vectors:
  
 A1 = (   3.5015926636,  -5.6832346135,  -0.8770644330)
 A2 = (   3.5015926636,   5.6832346135,  -0.8770644330)
 A3 = (   0.0005261186,   0.0000000000,   6.7512585089)
 
   2 primitive cells build up your supercell.
 

 Routine SETGRP: Setting up the symmetry group for a 
 simple monoclinic supercell.


 Subroutine GETGRP returns: Found  4 space group operations
 (whereof  4 operations were pure point group operations)
 out of a pool of  4 trial point group operations.


The dynamic configuration has the point symmetry C_2h.


 Subroutine INISYM returns: Found  4 space group operations
 (whereof  4 operations are pure point group operations),
 and found     2 'primitive' translations


----------------------------------------------------------------------------------------

                                     Primitive cell                                     

  volume of cell :     268.7104

  direct lattice vectors                    reciprocal lattice vectors
     3.501592664 -5.683234614 -0.877064433     0.142789379 -0.087978068 -0.000011127
     3.501592664  5.683234614 -0.877064433     0.142789379  0.087978068 -0.000011127
     0.000526119  0.000000000  6.751258509     0.037099893  0.000000000  0.148117641

  length of vectors
     6.732722248  6.732722248  6.751258529     0.167716866  0.167716866  0.152693279

  position of ions in fractional coordinates (direct lattice)
     0.732836413  0.267163587  0.000000000
     0.267163587  0.732836413  0.000000000
     0.801603265  0.198396735  0.500000000
     0.198396735  0.801603265  0.500000000
     0.629626841  0.629626841  0.347996074
     0.370373159  0.370373159  0.652003926
     0.842902805  0.842902805  0.853119890
     0.157097195  0.157097195  0.146880110
     0.100222994  0.100222994  0.865843910
     0.899777006  0.899777006  0.134156090
     0.597010126  0.852667903  0.736617142
     0.852667903  0.597010126  0.736617142
     0.402989874  0.147332097  0.263382858
     0.147332097  0.402989874  0.263382858

  ion indices of the primitive-cell ions
   primitive index   ion index
                 1           1
                 2           2
                 3           5
                 4           6
                 5          11
                 6          12
                 7          13
                 8          14
                 9          17
                10          18
                11          21
                12          26
                13          27
                14          24

----------------------------------------------------------------------------------------

 
 
 KPOINTS: pymatgen with grid density = 827 / numbe

Automatic generation of k-mesh.
 Grid dimensions read from file:
 generate k-points for:    3    2    3

 Generating k-lattice:

  Cartesian coordinates                     Fractional coordinates (reciprocal lattice)
     0.047596460  0.000000000 -0.000003709     0.333333333 -0.000000000  0.000000000
     0.000000000  0.043989034  0.000000000     0.000000000  0.500000000  0.000000000
     0.012366631 -0.000000000  0.049372547     0.000000000 -0.000000000  0.333333333

  Length of vectors
     0.047596460  0.043989034  0.050897760

  Shift w.r.t. Gamma in fractional coordinates (k-lattice)
     0.000000000  0.000000000  0.000000000

 TETIRR: Found     51 inequivalent tetrahedra from      108
 
 Subroutine IBZKPT returns following result:
 ===========================================
 
 Found     10 irreducible k-points:
 
 Following reciprocal coordinates:
            Coordinates               Weight
  0.000000  0.000000  0.000000      1.000000
  0.333333  0.000000 -0.000000      2.000000
  0.000000  0.500000  0.000000      1.000000
  0.333333  0.500000 -0.000000      2.000000
  0.000000  0.000000  0.333333      2.000000
  0.333333  0.000000  0.333333      2.000000
 -0.333333  0.000000  0.333333      2.000000
  0.000000  0.500000  0.333333      2.000000
  0.333333  0.500000  0.333333      2.000000
 -0.333333  0.500000  0.333333      2.000000
 
 Following cartesian coordinates:
            Coordinates               Weight
  0.000000  0.000000  0.000000      1.000000
  0.047596  0.000000 -0.000004      2.000000
  0.000000  0.043989  0.000000      1.000000
  0.047596  0.043989 -0.000004      2.000000
  0.012367 -0.000000  0.049373      2.000000
  0.059963  0.000000  0.049369      2.000000
 -0.035230 -0.000000  0.049376      2.000000
  0.012367  0.043989  0.049373      2.000000
  0.059963  0.043989  0.049369      2.000000
 -0.035230  0.043989  0.049376      2.000000
 
 
 Subroutine IBZKPT_HF returns following result:
 ==============================================
 
 Found     18 k-points in 1st BZ
 the following     18 k-points will be used (e.g. in the exchange kernel)
 Following reciprocal coordinates:   # in IRBZ
  0.000000  0.000000  0.000000    0.05555556   1 t-inv F
  0.333333  0.000000 -0.000000    0.05555556   2 t-inv F
  0.000000  0.500000  0.000000    0.05555556   3 t-inv F
  0.333333  0.500000 -0.000000    0.05555556   4 t-inv F
  0.000000  0.000000  0.333333    0.05555556   5 t-inv F
  0.333333  0.000000  0.333333    0.05555556   6 t-inv F
 -0.333333  0.000000  0.333333    0.05555556   7 t-inv F
  0.000000  0.500000  0.333333    0.05555556   8 t-inv F
  0.333333  0.500000  0.333333    0.05555556   9 t-inv F
 -0.333333  0.500000  0.333333    0.05555556  10 t-inv F
 -0.333333 -0.000000  0.000000    0.05555556   2 t-inv F
 -0.333333 -0.500000  0.000000    0.05555556   4 t-inv F
 -0.000000 -0.000000 -0.333333    0.05555556   5 t-inv F
 -0.333333 -0.000000 -0.333333    0.05555556   6 t-inv F
  0.333333 -0.000000 -0.333333    0.05555556   7 t-inv F
 -0.000000 -0.500000 -0.333333    0.05555556   8 t-inv F
 -0.333333 -0.500000 -0.333333    0.05555556   9 t-inv F
  0.333333 -0.500000 -0.333333    0.05555556  10 t-inv F


--------------------------------------------------------------------------------------------------------




 Dimension of arrays:
   k-points           NKPTS =     10   k-points in BZ     NKDIM =     18   number of bands    NBANDS=    144
   number of dos      NEDOS =   1834   number of ions     NIONS =     28
   non local maximal  LDIM  =      5   non local SUM 2l+1 LMDIM =     13
   total plane-waves  NPLWV = 376320
   max r-space proj   IRMAX =      1   max aug-charges    IRDMAX=  33250
   dimension x,y,z NGX =    64 NGY =   98 NGZ =   60
   dimension x,y,z NGXF=   128 NGYF=  196 NGZF=  120
   support grid    NGXF=   128 NGYF=  196 NGZF=  120
   ions per type =              12   4  12
   NGX,Y,Z   is equivalent  to a cutoff of  14.74, 14.33, 14.77 a.u.
   NGXF,Y,Z  is equivalent  to a cutoff of  29.47, 28.67, 29.55 a.u.

 SYSTEM =  unknown system                          
 POSCAR =  Rb12 Al4 O12                            

 Startparameter for this run:
   NWRITE =      2    write-flag & timer
   PREC   = accura    normal or accurate (medium, high low for compatibility)
   ISTART =      0    job   : 0-new  1-cont  2-samecut
   ICHARG =      2    charge: 1-file 2-atom 10-const
   ISPIN  =      1    spin polarized calculation?
   LNONCOLLINEAR =      F non collinear calculations
   LSORBIT =      F    spin-orbit coupling
   INIWAV =      1    electr: 0-lowe 1-rand  2-diag
   LASPH  =      T    aspherical Exc in radial PAW
 Electronic Relaxation 1
   ENCUT  =  680.0 eV  49.98 Ry    7.07 a.u.  15.35 24.17 14.35*2*pi/ulx,y,z
   ENINI  =  680.0     initial cutoff
   ENAUG  = 1360.0 eV  augmentation charge cutoff
   NELM   =    200;   NELMIN=  5; NELMDL= -5     # of ELM steps 
   EDIFF  = 0.1E-04   stopping-criterion for ELM
   LREAL  =      F    real-space projection
   NLSPLINE    = F    spline interpolate recip. space projectors
   LCOMPAT=      F    compatible to vasp.4.4
   GGA_COMPAT  = T    GGA compatible to vasp.4.4-vasp.4.6
   LMAXPAW     = -100 max onsite density
   LMAXMIX     =    4 max onsite mixed and CHGCAR
   VOSKOWN=      0    Vosko Wilk Nusair interpolation
   ROPT   =    0.00000   0.00000   0.00000
 Ionic relaxation
   EDIFFG = 0.1E-03   stopping-criterion for IOM
   NSW    =      0    number of steps for IOM
   NBLOCK =      1;   KBLOCK =      1    inner block; outer block 
   IBRION =     -1    ionic relax: 0-MD 1-quasi-New 2-CG
   NFREE  =      0    steps in history (QN), initial steepest desc. (CG)
   ISIF   =      0    stress and relaxation
   IWAVPR =     10    prediction:  0-non 1-charg 2-wave 3-comb
   ISYM   =      3    0-nonsym 1-usesym 2-fastsym
   LCORR  =      T    Harris-Foulkes like correction to forces

   POTIM  = 0.5000    time-step for ionic-motion
   TEIN   =    0.0    initial temperature
   TEBEG  =    0.0;   TEEND  =   0.0 temperature during run
   SMASS  =  -3.00    Nose mass-parameter (am)
   estimated Nose-frequenzy (Omega)   =  0.10E-29 period in steps = 0.13E+47 mass=  -0.119E-26a.u.
   SCALEE = 1.0000    scale energy and forces
   NPACO  =    256;   APACO  = 10.0  distance and # of slots for P.C.
   PSTRESS=    0.0 pullay stress

  Mass of Ions in am
   POMASS =  85.47 26.98 16.00
  Ionic Valenz
   ZVAL   =   9.00  3.00  6.00
  Atomic Wigner-Seitz radii
   RWIGS  =  -1.00 -1.00 -1.00
  virtual crystal weights 
   VCA    =   1.00  1.00  1.00
   NELECT =     192.0000    total number of electrons
   NUPDOWN=      -1.0000    fix difference up-down

 DOS related values:
   EMIN   =  10.00;   EMAX   =-10.00  energy-range for DOS
   EFERMI =   0.00;   METHOD = LEGACY      
   ISMEAR =    -5;   SIGMA  =   0.05  broadening in eV -4-tet -1-fermi 0-gaus

 Electronic relaxation 2 (details)
   IALGO  =     38    algorithm
   LDIAG  =      T    sub-space diagonalisation (order eigenvalues)
   LSUBROT=      F    optimize rotation matrix (better conditioning)
   TURBO    =      0    0=normal 1=particle mesh
   IRESTART =      0    0=no restart 2=restart with 2 vectors
   NREBOOT  =      0    no. of reboots
   NMIN     =      0    reboot dimension
   EREF     =   0.00    reference energy to select bands
   IMIX   =      1    mixing-type and parameters
     AMIX     =   0.40;   BMIX     =  1.00
     AMIX_MAG =   1.60;   BMIX_MAG =  1.00
     AMIN     =   0.10
     WC   =   100.;   INIMIX=   1;  MIXPRE=   1;  MAXMIX= -45

 Intra band minimization:
   WEIMIN = 0.0000     energy-eigenvalue tresh-hold
   EBREAK =  0.17E-07  absolut break condition
   DEPER  =   0.30     relativ break condition  

   TIME   =   0.40     timestep for ELM

  volume/ion in A,a.u.               =      19.19       129.52
  Fermi-wavevector in a.u.,A,eV,Ry     =   1.161637  2.195176 18.359709  1.349401
  Thomas-Fermi vector in A             =   2.298207
 
 Write flags
   LWAVE        =      F    write WAVECAR
   LDOWNSAMPLE  =      F    k-point downsampling of WAVECAR
   LCHARG       =      F    write CHGCAR
   LVTOT        =      T    write LOCPOT, total local potential
   LVHAR        =      F    write LOCPOT, Hartree potential only
   LELF         =      F    write electronic localiz. function (ELF)
   LORBIT       =     11    0 simple, 1 ext, 2 COOP (PROOUT), +10 PAW based schemes


 Dipole corrections
   LMONO  =      F    monopole corrections only (constant potential shift)
   LDIPOL =      F    correct potential (dipole corrections)
   IDIPOL =      0    1-x, 2-y, 3-z, 4-all directions 
   EPSILON=  1.0000000 bulk dielectric constant

 Exchange correlation treatment:
   GGA     =    PE    GGA type
   LEXCH   =     8    internal setting for exchange type
   LIBXC   =     F    Libxc                    
   VOSKOWN =     0    Vosko Wilk Nusair interpolation
   EXXOEP  =     0    0=HF, 1=EXX-LHF (local Hartree Fock) 2=EXX OEP
   LHFCALC =     T    Hartree Fock is set to
   LSYMGRAD=     F    symmetrize gradient (conserves proper symmetry)
   PRECFOCK=accur.    Normal, Fast or Accurate (Low or Medium for compatibility)
   LRHFCALC=     F    long range Hartree Fock
   LRSCOR  =     F    long range correlation only (use DFT for short range part)
   LTHOMAS =     F    Thomas Fermi screening in HF
   LMODELHF=     F    short range full HF, long range fraction AEXX
   FOCKCORR=     1    mode to apply convergence corrections
   LFOCKACE=     T    use Adeptively-Compressed-Exchange operator
   ENCUT4O =  -1.0   cutoff for four orbital integrals eV
   LMAXFOCK=     4    L truncation for augmentation on plane wave grid
   LMAXFOCKAE=  -1    L truncation for all-electron charge restoration on plane wave grid
   NMAXFOCKAE=   1    number of basis functions for all-electron charge restoration
   LFOCKAEDFT=     F  apply the AE augmentation even for DFT
   NKREDX  =     1    reduce k-point grid by
   NKREDY  =     1    reduce k-point grid by
   NKREDZ  =     1    reduce k-point grid by
   SHIFTRED=     F    shift reduced grid of Gamma
   HFKIDENT=     F    idential grid for each k-point
   ODDONLY =     F    use only odd q-grid points
   EVENONLY=     F    use only even q-grid points
   HFALPHA =   -1.0000 decay constant for conv. correction
   MCALPHA =    0.0000 extent of test-charge in conv. correction in multipole expansion
   AEXX    =    0.2500 exact exchange contribution
   HFSCREEN=    0.2000 screening length (either q_TF or 0.3 A-1)
   HFSCREENC=   0.2000 screening length for correlation (either q_TF or 0.3 A-1)
   HFRCUT  =    0.0000 spherical cutoff for potential kernel
   ALDAX   =    0.7500 LDA exchange part
   AGGAX   =    0.7500 GGA exchange part
   ALDAC   =    1.0000 LDA correlation
   AGGAC   =    1.0000 GGA correlation
   ENCUTFOCK=  -1.0 apply spherical cutoff to Coloumb kernel
   NBANDSGWLOW=     1    first orbital included in HF term
   NBLOCK_FOCK=    64    blocking factor in FOCK_ACC

 Linear response parameters
   LEPSILON=     F    determine dielectric tensor
   LRPA    =     F    only Hartree local field effects (RPA)
   LNABLA  =     F    use nabla operator in PAW spheres
   LVEL    =     F    velocity operator in full k-point grid
   CSHIFT  =0.0000    complex shift for real part using Kramers Kronig
   OMEGAMAX=  -1.0    maximum frequency
   DEG_THRESHOLD= 0.2000000E-02 threshold for treating states as degnerate
   RTIME   =   -0.100 relaxation time in fs
  (WPLASMAI=    0.000 imaginary part of plasma frequency in eV, 0.658/RTIME)
   DFIELD  = 0.0000000 0.0000000 0.0000000 field for delta impulse in time
 
  Optional k-point grid parameters
   LKPOINTS_OPT  =     F    use optional k-point grid
   KPOINTS_OPT_MODE=     1    mode for optional k-point grid
 
 Orbital magnetization related:
   ORBITALMAG=     F  switch on orbital magnetization
   LCHIMAG   =     F  perturbation theory with respect to B field
   DQ        =  0.001000  dq finite difference perturbation B field
   LLRAUG    =     F  two centre corrections for induced B field
   LBONE     =     F  B-component reconstruction in AE one-centre
   LVGVCALC  =     T  calculate vGv susceptibility
   LVGVAPPL  =     F  apply vGv susceptibility instead of pGv for G=0

 Random number generation:
   RANDOM_GENERATOR = DEFAULT
   PCG_SEED         = not used


--------------------------------------------------------------------------------------------------------


 Static calculation
 charge density and potential will be updated during run
 non-spin polarized calculation
 Variant of blocked Davidson
 Davidson routine will perform the subspace rotation
 perform sub-space diagonalisation
    after iterative eigenvector-optimisation
 Kerker-like  mixing scheme
 using additional bands           48
 reciprocal scheme for non local part
 use partial core corrections
 calculate Harris-corrections to forces 
   (improved forces if not selfconsistent)
 use gradient corrections 
 use of overlap-Matrix (Vanderbilt PP)
 Fermi weights with tetrahedron method with Bloechl corrections


--------------------------------------------------------------------------------------------------------


  energy-cutoff  :      680.00
  volume of cell :      537.42
      direct lattice vectors                 reciprocal lattice vectors
     7.003185327  0.000000000 -1.754128866     0.142789379  0.000000000 -0.000011127
    -0.000000000 11.366469227  0.000000000     0.000000000  0.087978068  0.000000000
     0.000526119  0.000000000  6.751258509     0.037099893 -0.000000000  0.148117641

  length of vectors
     7.219527187 11.366469227  6.751258529     0.142789379  0.087978068  0.152693279


 
 k-points in units of 2pi/SCALE and weight: pymatgen with grid density = 827 / numbe
   0.00000000  0.00000000  0.00000000       0.056
   0.04759646  0.00000000 -0.00000371       0.111
   0.00000000  0.04398903  0.00000000       0.056
   0.04759646  0.04398903 -0.00000371       0.111
   0.01236663 -0.00000000  0.04937255       0.111
   0.05996309  0.00000000  0.04936884       0.111
  -0.03522983 -0.00000000  0.04937626       0.111
   0.01236663  0.04398903  0.04937255       0.111
   0.05996309  0.04398903  0.04936884       0.111
  -0.03522983  0.04398903  0.04937626       0.111
 
 k-points in reciprocal lattice and weights: pymatgen with grid density = 827 / numbe
   0.00000000  0.00000000  0.00000000       0.056
   0.33333333  0.00000000 -0.00000000       0.111
   0.00000000  0.50000000  0.00000000       0.056
   0.33333333  0.50000000 -0.00000000       0.111
   0.00000000  0.00000000  0.33333333       0.111
   0.33333333  0.00000000  0.33333333       0.111
  -0.33333333  0.00000000  0.33333333       0.111
   0.00000000  0.50000000  0.33333333       0.111
   0.33333333  0.50000000  0.33333333       0.111
  -0.33333333  0.50000000  0.33333333       0.111
 
 position of ions in fractional coordinates (direct lattice) 
   0.00000000  0.26716359  0.00000000
   0.00000000  0.73283641  0.00000000
   0.50000000  0.76716359  0.00000000
   0.50000000  0.23283641  0.00000000
   0.00000000  0.19839673  0.50000000
   0.00000000  0.80160327  0.50000000
   0.50000000  0.69839673  0.50000000
   0.50000000  0.30160327  0.50000000
   0.62962684  0.00000000  0.34799607
   0.37037316  0.00000000  0.65200393
   0.12962684  0.50000000  0.34799607
   0.87037316  0.50000000  0.65200393
   0.84290280  0.00000000  0.85311989
   0.15709720  0.00000000  0.14688011
   0.34290280  0.50000000  0.85311989
   0.65709720  0.50000000  0.14688011
   0.10022299  0.00000000  0.86584391
   0.89977701  0.00000000  0.13415609
   0.60022299  0.50000000  0.86584391
   0.39977701  0.50000000  0.13415609
   0.72483901  0.12782889  0.73661714
   0.72483901  0.87217111  0.73661714
   0.27516099  0.87217111  0.26338286
   0.27516099  0.12782889  0.26338286
   0.22483901  0.62782889  0.73661714
   0.22483901  0.37217111  0.73661714
   0.77516099  0.37217111  0.26338286
   0.77516099  0.62782889  0.26338286
 
 position of ions in cartesian coordinates  (Angst):
  -0.00000000  3.03670669  0.00000000
  -0.00000000  8.32976254  0.00000000
   3.50159266  8.71994130 -0.87706443
   3.50159266  2.64652793 -0.87706443
   0.00026306  2.25507038  3.37562925
   0.00026306  9.11139885  3.37562925
   3.50185572  7.93830499  2.49856482
   3.50185572  3.42816424  2.49856482
   4.40957654  0.00000000  1.24496484
   2.59413490  0.00000000  3.75216480
   0.90798388  5.68323461  2.12202927
   6.09572757  5.68323461  2.87510037
   5.90345340  0.00000000  4.28107277
   1.10025805  0.00000000  0.71605687
   2.40186073  5.68323461  5.15813721
   4.60185071  5.68323461 -0.16100756
   0.70233573  0.00000000  5.66973202
   6.30137571  0.00000000 -0.67260238
   4.20392840  5.68323461  4.79266759
   2.79978305  5.68323461  0.20446205
   5.07656950  1.45296313  3.70163171
   5.07656950  9.91350610  3.70163171
   1.92714194  9.91350610  1.29549793
   1.92714194  1.45296313  1.29549793
   1.57497684  7.13619774  4.57869614
   1.57497684  4.23027149  4.57869614
   5.42873461  4.23027149  0.41843350
   5.42873461  7.13619774  0.41843350
 


--------------------------------------------------------------------------------------------------------


 k-point   1 :   0.0000 0.0000 0.0000  plane waves:   21643
 k-point   2 :   0.3333 0.0000-0.0000  plane waves:   21633
 k-point   3 :   0.0000 0.5000 0.0000  plane waves:   21672
 k-point   4 :   0.3333 0.5000-0.0000  plane waves:   21648
 k-point   5 :   0.0000 0.0000 0.3333  plane waves:   21633
 k-point   6 :   0.3333 0.0000 0.3333  plane waves:   21623
 k-point   7 :  -0.3333 0.0000 0.3333  plane waves:   21626
 k-point   8 :   0.0000 0.5000 0.3333  plane waves:   21618
 k-point   9 :   0.3333 0.5000 0.3333  plane waves:   21638
 k-point  10 :  -0.3333 0.5000 0.3333  plane waves:   21638

 maximum and minimum number of plane-waves per node :      1116     1048

 maximum number of plane-waves:     21672
 maximum index in each direction: 
   IXMAX=   15   IYMAX=   24   IZMAX=   14
   IXMIN=  -15   IYMIN=  -24   IZMIN=  -14


 parallel 3D FFT for wavefunctions:
    minimum data exchange during FFTs selected (reduces bandwidth)
 parallel 3D FFT for charge:
    minimum data exchange during FFTs selected (reduces bandwidth)

 
 Radii for the augmentation spheres in the non-local exchange
 for species   1 augmentation radius   1.387 (default was   1.110)
       energy cutoff for augmentation   2720.0
 for species   2 augmentation radius   1.301 (default was   1.041)
       energy cutoff for augmentation   2720.0
 for species   3 augmentation radius   0.902 (default was   0.722)
       energy cutoff for augmentation   2720.0

 real space projection operators:
  total allocation   :      21985.78 KBytes
  max/ min on nodes  :       1529.88        929.45

 Maximum index for augmentation-charges in exchange          883
  SETUP_FOCK is finished

 total amount of memory used by VASP MPI-rank0    51114. kBytes
=======================================================================

   base      :      30000. kBytes
   nonl-proj :       4024. kBytes
   fftplans  :       2852. kBytes
   grid      :       3995. kBytes
   one-center:         16. kBytes
   HF        :         67. kBytes
   nonlr-proj:       5737. kBytes
   wavefun   :       4423. kBytes
 
     INWAV:  cpu time      0.0001: real time      0.0006
 initial charge density was supplied:
 charge density of overlapping atoms calculated
 number of electron     192.0000000 magnetization 
 keeping initial charge density in first step


--------------------------------------------------------------------------------------------------------


 Maximum index for augmentation-charges         2195 (set IRDMAX)


--------------------------------------------------------------------------------------------------------


 First call to EWALD:  gamma=   0.218
 Maximum number of real-space cells 3x 2x 3
 Maximum number of reciprocal cells 2x 4x 2

    FEWALD:  cpu time      0.0029: real time      0.0031


--------------------------------------- Ionic step        1  -------------------------------------------




--------------------------------------- Iteration      1(   1)  ---------------------------------------


    POTLOK:  cpu time      0.0369: real time      0.0389
    SETDIJ:  cpu time      0.1332: real time      0.1339
     EDDAV:  cpu time      1.5269: real time      2.0827
 BZINTS: Fermi energy:   11.955181;  192.000000 electrons
         Band energy:-0.467893E+03;  BLOECHL correction:   -0.036553
       DOS:  cpu time      0.0234: real time      0.0236
    --------------------------------------------
      LOOP:  cpu time      1.7205: real time      2.2790

 eigenvalue-minimisations  :  2880
 total energy-change (2. order) :-0.7191191E+04  (-0.1073041E+05)
 number of electron     192.0000000 magnetization 
 augmentation part      192.0000000 magnetization 

 Free energy of the ion-electron system (eV)
  ---------------------------------------------------
  alpha Z        PSCENC =       842.13085518
  Ewald energy   TEWEN  =    -10379.33692041
  -Hartree energ DENC   =     -2861.04589952
  -exchange      EXHF   =         0.00000000
  -V(xc)+E(xc)   XCENC  =       579.48855573
  PAW double counting   =     10484.85420774   -18696.92133658
  entropy T*S    EENTRO =         0.00000000
  eigenvalues    EBANDS =      -467.89331934
  atomic energy  EATOM  =     13307.53328571
  Solvation  Ediel_sol  =         0.00000000
  ---------------------------------------------------
  free energy    TOTEN  =     -7191.19057149 eV

  energy without entropy =    -7191.19057149  energy(sigma->0) =    -7191.19057149
  exchange ACFDT corr.  =         0.00000000  see jH, gK, PRB 81, 115126


--------------------------------------------------------------------------------------------------------




--------------------------------------- Iteration      1(   2)  ---------------------------------------


     EDDAV:  cpu time      1.7033: real time      1.7101
 BZINTS: Fermi energy:   -1.878996;  192.000000 electrons
         Band energy:-0.190604E+04;  BLOECHL correction:    0.000000
       DOS:  cpu time      0.0137: real time      0.0138
    --------------------------------------------
      LOOP:  cpu time      1.7170: real time      1.7239

 eigenvalue-minimisations  :  3720
 total energy-change (2. order) :-0.1438149E+04  (-0.1372459E+04)
 number of electron     192.0000000 magnetization 
 augmentation part      192.0000000 magnetization 

 Free energy of the ion-electron system (eV)
  ---------------------------------------------------
  alpha Z        PSCENC =       842.13085518
  Ewald energy   TEWEN  =    -10379.33692041
  -Hartree energ DENC   =     -2861.04589952
  -exchange      EXHF   =         0.00000000
  -V(xc)+E(xc)   XCENC  =       579.48855573
  PAW double counting   =     10484.85420774   -18696.92133658
  entropy T*S    EENTRO =         0.00000000
  eigenvalues    EBANDS =     -1906.04221214
  atomic energy  EATOM  =     13307.53328571
  Solvation  Ediel_sol  =         0.00000000
  ---------------------------------------------------
  free energy    TOTEN  =     -8629.33946429 eV

  energy without entropy =    -8629.33946429  energy(sigma->0) =    -8629.33946429
  exchange ACFDT corr.  =         0.00000000  see jH, gK, PRB 81, 115126


--------------------------------------------------------------------------------------------------------




--------------------------------------- Iteration      1(   3)  ---------------------------------------


     EDDAV:  cpu time      1.6861: real time      1.7005
 BZINTS: Fermi energy:   -3.471116;  192.000000 electrons
         Band energy:-0.200617E+04;  BLOECHL correction:    0.000000
       DOS:  cpu time      0.0123: real time      0.0124
    --------------------------------------------
      LOOP:  cpu time      1.6984: real time      1.7128

 eigenvalue-minimisations  :  3684
 total energy-change (2. order) :-0.1001252E+03  (-0.9943983E+02)
 number of electron     192.0000000 magnetization 
 augmentation part      192.0000000 magnetization 

 Free energy of the ion-electron system (eV)
  ---------------------------------------------------
  alpha Z        PSCENC =       842.13085518
  Ewald energy   TEWEN  =    -10379.33692041
  -Hartree energ DENC   =     -2861.04589952
  -exchange      EXHF   =         0.00000000
  -V(xc)+E(xc)   XCENC  =       579.48855573
  PAW double counting   =     10484.85420774   -18696.92133658
  entropy T*S    EENTRO =         0.00000000
  eigenvalues    EBANDS =     -2006.16742546
  atomic energy  EATOM  =     13307.53328571
  Solvation  Ediel_sol  =         0.00000000
  ---------------------------------------------------
  free energy    TOTEN  =     -8729.46467760 eV

  energy without entropy =    -8729.46467760  energy(sigma->0) =    -8729.46467760
  exchange ACFDT corr.  =         0.00000000  see jH, gK, PRB 81, 115126


--------------------------------------------------------------------------------------------------------




--------------------------------------- Iteration      1(   4)  ---------------------------------------


     EDDAV:  cpu time      2.0918: real time      2.1227
 BZINTS: Fermi energy:   -3.475191;  192.000000 electrons
         Band energy:-0.201027E+04;  BLOECHL correction:    0.000000
       DOS:  cpu time      0.0144: real time      0.0144
    --------------------------------------------
      LOOP:  cpu time      2.1062: real time      2.1371

 eigenvalue-minimisations  :  4548
 total energy-change (2. order) :-0.4098279E+01  (-0.4091303E+01)
 number of electron     192.0000000 magnetization 
 augmentation part      192.0000000 magnetization 

 Free energy of the ion-electron system (eV)
  ---------------------------------------------------
  alpha Z        PSCENC =       842.13085518
  Ewald energy   TEWEN  =    -10379.33692041
  -Hartree energ DENC   =     -2861.04589952
  -exchange      EXHF   =         0.00000000
  -V(xc)+E(xc)   XCENC  =       579.48855573
  PAW double counting   =     10484.85420774   -18696.92133658
  entropy T*S    EENTRO =         0.00000000
  eigenvalues    EBANDS =     -2010.26570402
  atomic energy  EATOM  =     13307.53328571
  Solvation  Ediel_sol  =         0.00000000
  ---------------------------------------------------
  free energy    TOTEN  =     -8733.56295617 eV

  energy without entropy =    -8733.56295617  energy(sigma->0) =    -8733.56295617
  exchange ACFDT corr.  =         0.00000000  see jH, gK, PRB 81, 115126


--------------------------------------------------------------------------------------------------------




--------------------------------------- Iteration      1(   5)  ---------------------------------------


    POTLOK:  cpu time      0.0656: real time      0.0823
    SETDIJ:  cpu time      0.3382: real time      0.3390
     EDDAV:  cpu time    580.5250: real time    582.0200
 BZINTS: Fermi energy:   -5.072412;  192.000000 electrons
         Band energy:-0.224881E+04;  BLOECHL correction:    0.000000
       DOS:  cpu time      0.0145: real time      0.0146
    CHARGE:  cpu time      0.1208: real time      0.1214
    MIXING:  cpu time      0.0006: real time      0.0006
    --------------------------------------------
      LOOP:  cpu time    581.0647: real time    582.5779

 eigenvalue-minimisations  :  3396
 total energy-change (2. order) : 0.8523432E+04  (-0.3005070E+01)
 number of electron     192.0000003 magnetization 
 augmentation part        8.9171232 magnetization 

 Free energy of the ion-electron system (eV)
  ---------------------------------------------------
  alpha Z        PSCENC =       842.13085518
  Ewald energy   TEWEN  =    -10379.33692041
  -Hartree energ DENC   =     -2861.04589952
  -exchange      EXHF   =       535.33668779
  -V(xc)+E(xc)   XCENC  =       442.82799802
  PAW double counting   =     10611.94329229   -10460.71329798
  entropy T*S    EENTRO =         0.00000000
  eigenvalues    EBANDS =     -2248.80712032
  atomic energy  EATOM  =     13307.53328571
  Solvation  Ediel_sol  =         0.00000000
  ---------------------------------------------------
  free energy    TOTEN  =      -210.13111923 eV

  energy without entropy =     -210.13111923  energy(sigma->0) =     -210.13111923
  exchange ACFDT corr.  =         0.00000000  see jH, gK, PRB 81, 115126


--------------------------------------------------------------------------------------------------------




--------------------------------------- Iteration      1(   6)  ---------------------------------------


    POTLOK:  cpu time      0.0873: real time      0.1035
    SETDIJ:  cpu time      0.3414: real time      0.3423
     EDDAV:  cpu time    581.9754: real time    583.4842
 BZINTS: Fermi energy:   -0.676001;  192.000000 electrons
         Band energy:-0.191349E+04;  BLOECHL correction:    0.000000
       DOS:  cpu time      0.0124: real time      0.0125
    CHARGE:  cpu time      0.1146: real time      0.1149
    MIXING:  cpu time      0.0005: real time      0.0005
    --------------------------------------------
      LOOP:  cpu time    582.5315: real time    584.0579

 eigenvalue-minimisations  :  4116
 total energy-change (2. order) : 0.4541801E+02  (-0.1101228E+02)
 number of electron     192.0000004 magnetization 
 augmentation part        6.9796589 magnetization 

 Free energy of the ion-electron system (eV)
  ---------------------------------------------------
  alpha Z        PSCENC =       842.13085518
  Ewald energy   TEWEN  =    -10379.33692041
  -Hartree energ DENC   =     -3154.84718580
  -exchange      EXHF   =       533.40567942
  -V(xc)+E(xc)   XCENC  =       456.84322433
  PAW double counting   =     13077.50649695   -12934.46108589
  entropy T*S    EENTRO =         0.00000000
  eigenvalues    EBANDS =     -1913.48745530
  atomic energy  EATOM  =     13307.53328571
  Solvation  Ediel_sol  =         0.00000000
  ---------------------------------------------------
  free energy    TOTEN  =      -164.71310580 eV

  energy without entropy =     -164.71310580  energy(sigma->0) =     -164.71310580
  exchange ACFDT corr.  =         0.00000000  see jH, gK, PRB 81, 115126


--------------------------------------------------------------------------------------------------------




--------------------------------------- Iteration      1(   7)  ---------------------------------------


    POTLOK:  cpu time      0.1599: real time      0.1747
    SETDIJ:  cpu time      0.3410: real time      0.3419
     EDDAV:  cpu time    582.4212: real time    583.9134
 BZINTS: Fermi energy:    0.368476;  192.000000 electrons
         Band energy:-0.185486E+04;  BLOECHL correction:    0.000000
       DOS:  cpu time      0.0124: real time      0.0125
    CHARGE:  cpu time      0.1075: real time      0.1078
    MIXING:  cpu time      0.0003: real time      0.0003
    --------------------------------------------
      LOOP:  cpu time    583.0423: real time    584.5506

 eigenvalue-minimisations  :  3300
 total energy-change (2. order) :-0.4802000E+01  (-0.3226127E+01)
 number of electron     192.0000005 magnetization 
 augmentation part        6.0126309 magnetization 

 Free energy of the ion-electron system (eV)
  ---------------------------------------------------
  alpha Z        PSCENC =       842.13085518
  Ewald energy   TEWEN  =    -10379.33692041
  -Hartree energ DENC   =     -3190.02962969
  -exchange      EXHF   =       505.71889500
  -V(xc)+E(xc)   XCENC  =       458.09914673
  PAW double counting   =     15636.38240333   -15495.15294919
  entropy T*S    EENTRO =         0.00000000
  eigenvalues    EBANDS =     -1854.86019272
  atomic energy  EATOM  =     13307.53328571
  Solvation  Ediel_sol  =         0.00000000
  ---------------------------------------------------
  free energy    TOTEN  =      -169.51510604 eV

  energy without entropy =     -169.51510604  energy(sigma->0) =     -169.51510604
  exchange ACFDT corr.  =         0.00000000  see jH, gK, PRB 81, 115126


--------------------------------------------------------------------------------------------------------




--------------------------------------- Iteration      1(   8)  ---------------------------------------


    POTLOK:  cpu time      0.0848: real time      0.1005
    SETDIJ:  cpu time      0.3386: real time      0.3394
     EDDAV:  cpu time    583.2084: real time    584.6932
 BZINTS: Fermi energy:    0.024510;  192.000000 electrons
         Band energy:-0.188742E+04;  BLOECHL correction:    0.000000
       DOS:  cpu time      0.0141: real time      0.0141
    CHARGE:  cpu time      0.1288: real time      0.1291
    MIXING:  cpu time      0.0004: real time      0.0004
    --------------------------------------------
      LOOP:  cpu time    583.7751: real time    585.2767

 eigenvalue-minimisations  :  3660
 total energy-change (2. order) : 0.1678863E+01  (-0.3878300E+00)
 number of electron     192.0000006 magnetization 
 augmentation part        6.0719153 magnetization 

 Free energy of the ion-electron system (eV)
  ---------------------------------------------------
  alpha Z        PSCENC =       842.13085518
  Ewald energy   TEWEN  =    -10379.33692041
  -Hartree energ DENC   =     -3141.73523851
  -exchange      EXHF   =       494.09023235
  -V(xc)+E(xc)   XCENC  =       455.49577267
  PAW double counting   =     17628.09345289   -17486.68905714
  entropy T*S    EENTRO =         0.00000000
  eigenvalues    EBANDS =     -1887.41862561
  atomic energy  EATOM  =     13307.53328571
  Solvation  Ediel_sol  =         0.00000000
  ---------------------------------------------------
  free energy    TOTEN  =      -167.83624286 eV

  energy without entropy =     -167.83624286  energy(sigma->0) =     -167.83624286
  exchange ACFDT corr.  =         0.00000000  see jH, gK, PRB 81, 115126


--------------------------------------------------------------------------------------------------------




--------------------------------------- Iteration      1(   9)  ---------------------------------------


    POTLOK:  cpu time      0.1058: real time      0.1230
    SETDIJ:  cpu time      0.3616: real time      0.3626
     EDDAV:  cpu time    583.0176: real time    584.5005
 BZINTS: Fermi energy:   -0.093378;  192.000000 electrons
         Band energy:-0.189780E+04;  BLOECHL correction:    0.000000
       DOS:  cpu time      0.0136: real time      0.0137
    CHARGE:  cpu time      0.1167: real time      0.1170
    MIXING:  cpu time      0.0005: real time      0.0005
    --------------------------------------------
      LOOP:  cpu time    583.6158: real time    585.1173

 eigenvalue-minimisations  :  3348
 total energy-change (2. order) : 0.1822580E+00  (-0.1422827E+00)
 number of electron     192.0000006 magnetization 
 augmentation part        6.2234639 magnetization 

 Free energy of the ion-electron system (eV)
  ---------------------------------------------------
  alpha Z        PSCENC =       842.13085518
  Ewald energy   TEWEN  =    -10379.33692041
  -Hartree energ DENC   =     -3133.91617780
  -exchange      EXHF   =       497.22052887
  -V(xc)+E(xc)   XCENC  =       454.98945907
  PAW double counting   =     18835.77077050   -18694.24159914
  entropy T*S    EENTRO =         0.00000000
  eigenvalues    EBANDS =     -1897.80418689
  atomic energy  EATOM  =     13307.53328571
  Solvation  Ediel_sol  =         0.00000000
  ---------------------------------------------------
  free energy    TOTEN  =      -167.65398490 eV

  energy without entropy =     -167.65398490  energy(sigma->0) =     -167.65398490
  exchange ACFDT corr.  =         0.00000000  see jH, gK, PRB 81, 115126


--------------------------------------------------------------------------------------------------------




--------------------------------------- Iteration      1(  10)  ---------------------------------------


    POTLOK:  cpu time      0.0889: real time      0.1048
    SETDIJ:  cpu time      0.3392: real time      0.3402
     EDDAV:  cpu time    582.8180: real time    584.3058
 BZINTS: Fermi energy:    0.044170;  192.000000 electrons
         Band energy:-0.188937E+04;  BLOECHL correction:    0.000000
       DOS:  cpu time      0.0126: real time      0.0127
    CHARGE:  cpu time      0.1096: real time      0.1099
    MIXING:  cpu time      0.0003: real time      0.0003
    --------------------------------------------
      LOOP:  cpu time    583.3687: real time    584.8737

 eigenvalue-minimisations  :  3732
 total energy-change (2. order) : 0.8307136E-01  (-0.6343555E-02)
 number of electron     192.0000006 magnetization 
 augmentation part        6.1885673 magnetization 

 Free energy of the ion-electron system (eV)
  ---------------------------------------------------
  alpha Z        PSCENC =       842.13085518
  Ewald energy   TEWEN  =    -10379.33692041
  -Hartree energ DENC   =     -3145.05026407
  -exchange      EXHF   =       499.57527798
  -V(xc)+E(xc)   XCENC  =       455.47029061
  PAW double counting   =     19481.89557491   -19340.41793711
  entropy T*S    EENTRO =         0.00000000
  eigenvalues    EBANDS =     -1889.37107635
  atomic energy  EATOM  =     13307.53328571
  Solvation  Ediel_sol  =         0.00000000
  ---------------------------------------------------
  free energy    TOTEN  =      -167.57091355 eV

  energy without entropy =     -167.57091355  energy(sigma->0) =     -167.57091355
  exchange ACFDT corr.  =         0.00000000  see jH, gK, PRB 81, 115126


--------------------------------------------------------------------------------------------------------




--------------------------------------- Iteration      1(  11)  ---------------------------------------


    POTLOK:  cpu time      0.0649: real time      0.0842
    SETDIJ:  cpu time      0.3407: real time      0.3415
     EDDAV:  cpu time    585.1656: real time    591.0934
 BZINTS: Fermi energy:    0.140093;  192.000000 electrons
         Band energy:-0.188307E+04;  BLOECHL correction:    0.000000
       DOS:  cpu time      0.0172: real time      0.0444
    CHARGE:  cpu time      0.1561: real time      0.4341
    MIXING:  cpu time      0.0013: real time      0.0013
    --------------------------------------------
      LOOP:  cpu time    585.7461: real time    591.9994

 eigenvalue-minimisations  :  3504
 total energy-change (2. order) : 0.2623569E-01  (-0.5451028E-02)
 number of electron     192.0000006 magnetization 
 augmentation part        6.1425973 magnetization 

 Free energy of the ion-electron system (eV)
  ---------------------------------------------------
  alpha Z        PSCENC =       842.13085518
  Ewald energy   TEWEN  =    -10379.33692041
  -Hartree energ DENC   =     -3151.39442433
  -exchange      EXHF   =       499.31553829
  -V(xc)+E(xc)   XCENC  =       455.74761526
  PAW double counting   =     19843.26623089   -19701.73716910
  entropy T*S    EENTRO =         0.00000000
  eigenvalues    EBANDS =     -1883.06968936
  atomic energy  EATOM  =     13307.53328571
  Solvation  Ediel_sol  =         0.00000000
  ---------------------------------------------------
  free energy    TOTEN  =      -167.54467786 eV

  energy without entropy =     -167.54467786  energy(sigma->0) =     -167.54467786
  exchange ACFDT corr.  =         0.00000000  see jH, gK, PRB 81, 115126


--------------------------------------------------------------------------------------------------------




--------------------------------------- Iteration      1(  12)  ---------------------------------------


    POTLOK:  cpu time      0.1049: real time      0.2281
    SETDIJ:  cpu time      0.3447: real time      0.3462
     EDDAV:  cpu time    584.2780: real time    585.8054
 BZINTS: Fermi energy:    0.147230;  192.000000 electrons
         Band energy:-0.188148E+04;  BLOECHL correction:    0.000000
       DOS:  cpu time      0.0174: real time      0.0175
    CHARGE:  cpu time      0.1390: real time      0.1394
    MIXING:  cpu time      0.0017: real time      0.0017
    --------------------------------------------
      LOOP:  cpu time    584.8853: real time    586.5378

 eigenvalue-minimisations  :  3888
 total energy-change (2. order) : 0.2450608E-02  (-0.1531898E-02)
 number of electron     192.0000006 magnetization 
 augmentation part        6.1275882 magnetization 

 Free energy of the ion-electron system (eV)
  ---------------------------------------------------
  alpha Z        PSCENC =       842.13085518
  Ewald energy   TEWEN  =    -10379.33692041
  -Hartree energ DENC   =     -3152.59062811
  -exchange      EXHF   =       498.77120584
  -V(xc)+E(xc)   XCENC  =       455.79154912
  PAW double counting   =     20049.58728969   -19907.94435232
  entropy T*S    EENTRO =         0.00000000
  eigenvalues    EBANDS =     -1881.48451197
  atomic energy  EATOM  =     13307.53328571
  Solvation  Ediel_sol  =         0.00000000
  ---------------------------------------------------
  free energy    TOTEN  =      -167.54222725 eV

  energy without entropy =     -167.54222725  energy(sigma->0) =     -167.54222725
  exchange ACFDT corr.  =         0.00000000  see jH, gK, PRB 81, 115126


--------------------------------------------------------------------------------------------------------




--------------------------------------- Iteration      1(  13)  ---------------------------------------


    POTLOK:  cpu time      0.1024: real time      0.1035
    SETDIJ:  cpu time      0.3429: real time      0.3437
     EDDAV:  cpu time    585.7694: real time    587.2675
 BZINTS: Fermi energy:    0.159239;  192.000000 electrons
         Band energy:-0.188096E+04;  BLOECHL correction:    0.000000
       DOS:  cpu time      0.0167: real time      0.0168
    CHARGE:  cpu time      0.1092: real time      0.1100
    MIXING:  cpu time      0.0007: real time      0.0007
    --------------------------------------------
      LOOP:  cpu time    586.3419: real time    587.8430

 eigenvalue-minimisations  :  3504
 total energy-change (2. order) : 0.3033000E-04  (-0.4752310E-03)
 number of electron     192.0000006 magnetization 
 augmentation part        6.1361985 magnetization 

 Free energy of the ion-electron system (eV)
  ---------------------------------------------------
  alpha Z        PSCENC =       842.13085518
  Ewald energy   TEWEN  =    -10379.33692041
  -Hartree energ DENC   =     -3153.15811948
  -exchange      EXHF   =       498.68397435
  -V(xc)+E(xc)   XCENC  =       455.81205386
  PAW double counting   =     20162.54536929   -20020.79622707
  entropy T*S    EENTRO =         0.00000000
  eigenvalues    EBANDS =     -1880.95646835
  atomic energy  EATOM  =     13307.53328571
  Solvation  Ediel_sol  =         0.00000000
  ---------------------------------------------------
  free energy    TOTEN  =      -167.54219692 eV

  energy without entropy =     -167.54219692  energy(sigma->0) =     -167.54219692
  exchange ACFDT corr.  =         0.00000000  see jH, gK, PRB 81, 115126


--------------------------------------------------------------------------------------------------------




--------------------------------------- Iteration      1(  14)  ---------------------------------------


    POTLOK:  cpu time      0.1031: real time      0.1053
    SETDIJ:  cpu time      0.3454: real time      0.3471
     EDDAV:  cpu time    586.2595: real time    587.7503
 BZINTS: Fermi energy:    0.174323;  192.000000 electrons
         Band energy:-0.188029E+04;  BLOECHL correction:    0.000000
       DOS:  cpu time      0.0142: real time      0.0144
    CHARGE:  cpu time      0.1182: real time      0.1185
    MIXING:  cpu time      0.0004: real time      0.0004
    --------------------------------------------
      LOOP:  cpu time    586.8403: real time    588.3352

 eigenvalue-minimisations  :  3348
 total energy-change (2. order) :-0.7867153E-03  (-0.1326461E-03)
 number of electron     192.0000006 magnetization 
 augmentation part        6.1377741 magnetization 

 Free energy of the ion-electron system (eV)
  ---------------------------------------------------
  alpha Z        PSCENC =       842.13085518
  Ewald energy   TEWEN  =    -10379.33692041
  -Hartree energ DENC   =     -3153.94750939
  -exchange      EXHF   =       498.72037198
  -V(xc)+E(xc)   XCENC  =       455.84676961
  PAW double counting   =     20222.15943055   -20080.35552203
  entropy T*S    EENTRO =         0.00000000
  eigenvalues    EBANDS =     -1880.29374485
  atomic energy  EATOM  =     13307.53328571
  Solvation  Ediel_sol  =         0.00000000
  ---------------------------------------------------
  free energy    TOTEN  =      -167.54298364 eV

  energy without entropy =     -167.54298364  energy(sigma->0) =     -167.54298364
  exchange ACFDT corr.  =         0.00000000  see jH, gK, PRB 81, 115126


--------------------------------------------------------------------------------------------------------




--------------------------------------- Iteration      1(  15)  ---------------------------------------


    POTLOK:  cpu time      0.0936: real time      0.0947
    SETDIJ:  cpu time      0.3443: real time      0.3451
     EDDAV:  cpu time    585.6614: real time    587.1511
 BZINTS: Fermi energy:    0.168258;  192.000000 electrons
         Band energy:-0.187975E+04;  BLOECHL correction:   -0.000000
       DOS:  cpu time      0.0137: real time      0.0139
    CHARGE:  cpu time      0.1149: real time      0.1152
    MIXING:  cpu time      0.0003: real time      0.0003
    --------------------------------------------
      LOOP:  cpu time    586.2281: real time    587.7204

 eigenvalue-minimisations  :  3432
 total energy-change (2. order) :-0.6222360E-03  (-0.6034662E-04)
 number of electron     192.0000006 magnetization 
 augmentation part        6.1382401 magnetization 

 Free energy of the ion-electron system (eV)
  ---------------------------------------------------
  alpha Z        PSCENC =       842.13085518
  Ewald energy   TEWEN  =    -10379.33692041
  -Hartree energ DENC   =     -3154.54511358
  -exchange      EXHF   =       498.71634521
  -V(xc)+E(xc)   XCENC  =       455.87398099
  PAW double counting   =     20254.08879624   -20112.25152758
  entropy T*S    EENTRO =         0.00000000
  eigenvalues    EBANDS =     -1879.75330763
  atomic energy  EATOM  =     13307.53328571
  Solvation  Ediel_sol  =         0.00000000
  ---------------------------------------------------
  free energy    TOTEN  =      -167.54360587 eV

  energy without entropy =     -167.54360587  energy(sigma->0) =     -167.54360587
  exchange ACFDT corr.  =         0.00000000  see jH, gK, PRB 81, 115126


--------------------------------------------------------------------------------------------------------




--------------------------------------- Iteration      1(  16)  ---------------------------------------


    POTLOK:  cpu time      0.0644: real time      0.0660
    SETDIJ:  cpu time      0.3407: real time      0.3415
     EDDAV:  cpu time    587.2557: real time    588.7486
 BZINTS: Fermi energy:    0.187433;  192.000000 electrons
         Band energy:-0.187945E+04;  BLOECHL correction:    0.000000
       DOS:  cpu time      0.0131: real time      0.0133
    CHARGE:  cpu time      0.1093: real time      0.1096
    MIXING:  cpu time      0.0011: real time      0.0011
    --------------------------------------------
      LOOP:  cpu time    587.7843: real time    589.2800

 eigenvalue-minimisations  :  3324
 total energy-change (2. order) :-0.4212145E-03  (-0.2649064E-04)
 number of electron     192.0000006 magnetization 
 augmentation part        6.1375704 magnetization 

 Free energy of the ion-electron system (eV)
  ---------------------------------------------------
  alpha Z        PSCENC =       842.13085518
  Ewald energy   TEWEN  =    -10379.33692041
  -Hartree energ DENC   =     -3154.86407497
  -exchange      EXHF   =       498.69419122
  -V(xc)+E(xc)   XCENC  =       455.88873676
  PAW double counting   =     20271.25532943   -20129.39658878
  entropy T*S    EENTRO =         0.00000000
  eigenvalues    EBANDS =     -1879.44884123
  atomic energy  EATOM  =     13307.53328571
  Solvation  Ediel_sol  =         0.00000000
  ---------------------------------------------------
  free energy    TOTEN  =      -167.54402709 eV

  energy without entropy =     -167.54402709  energy(sigma->0) =     -167.54402709
  exchange ACFDT corr.  =         0.00000000  see jH, gK, PRB 81, 115126


--------------------------------------------------------------------------------------------------------




--------------------------------------- Iteration      1(  17)  ---------------------------------------


    POTLOK:  cpu time      0.0679: real time      0.0688
    SETDIJ:  cpu time      0.3402: real time      0.3410
     EDDAV:  cpu time    586.7404: real time    588.2361
 BZINTS: Fermi energy:    0.188052;  192.000000 electrons
         Band energy:-0.187928E+04;  BLOECHL correction:    0.000000
       DOS:  cpu time      0.0134: real time      0.0136
    CHARGE:  cpu time      0.1043: real time      0.1047
    MIXING:  cpu time      0.0003: real time      0.0003
    --------------------------------------------
      LOOP:  cpu time    587.2665: real time    588.7645

 eigenvalue-minimisations  :  3168
 total energy-change (2. order) :-0.2400319E-03  (-0.1084809E-04)
 number of electron     192.0000006 magnetization 
 augmentation part        6.1373742 magnetization 

 Free energy of the ion-electron system (eV)
  ---------------------------------------------------
  alpha Z        PSCENC =       842.13085518
  Ewald energy   TEWEN  =    -10379.33692041
  -Hartree energ DENC   =     -3155.04387189
  -exchange      EXHF   =       498.68277869
  -V(xc)+E(xc)   XCENC  =       455.89716121
  PAW double counting   =     20280.50893675   -20138.63495444
  entropy T*S    EENTRO =         0.00000000
  eigenvalues    EBANDS =     -1879.28153793
  atomic energy  EATOM  =     13307.53328571
  Solvation  Ediel_sol  =         0.00000000
  ---------------------------------------------------
  free energy    TOTEN  =      -167.54426712 eV

  energy without entropy =     -167.54426712  energy(sigma->0) =     -167.54426712
  exchange ACFDT corr.  =         0.00000000  see jH, gK, PRB 81, 115126


--------------------------------------------------------------------------------------------------------




--------------------------------------- Iteration      1(  18)  ---------------------------------------


    POTLOK:  cpu time      0.0853: real time      0.0867
    SETDIJ:  cpu time      0.3424: real time      0.3433
     EDDAV:  cpu time    588.3318: real time    591.6573
 BZINTS: Fermi energy:    0.188481;  192.000000 electrons
         Band energy:-0.187917E+04;  BLOECHL correction:    0.000000
       DOS:  cpu time      0.0168: real time      0.0236
    CHARGE:  cpu time      0.1112: real time      0.1121
    MIXING:  cpu time      0.0013: real time      0.0013
    --------------------------------------------
      LOOP:  cpu time    588.8891: real time    592.2244

 eigenvalue-minimisations  :  2928
 total energy-change (2. order) :-0.1296061E-03  (-0.4827295E-05)
 number of electron     192.0000006 magnetization 
 augmentation part        6.1375485 magnetization 

 Free energy of the ion-electron system (eV)
  ---------------------------------------------------
  alpha Z        PSCENC =       842.13085518
  Ewald energy   TEWEN  =    -10379.33692041
  -Hartree energ DENC   =     -3155.17253711
  -exchange      EXHF   =       498.68031394
  -V(xc)+E(xc)   XCENC  =       455.90325586
  PAW double counting   =     20285.43626235   -20143.55213271
  entropy T*S    EENTRO =         0.00000000
  eigenvalues    EBANDS =     -1879.16677955
  atomic energy  EATOM  =     13307.53328571
  Solvation  Ediel_sol  =         0.00000000
  ---------------------------------------------------
  free energy    TOTEN  =      -167.54439672 eV

  energy without entropy =     -167.54439672  energy(sigma->0) =     -167.54439672
  exchange ACFDT corr.  =         0.00000000  see jH, gK, PRB 81, 115126


--------------------------------------------------------------------------------------------------------




--------------------------------------- Iteration      1(  19)  ---------------------------------------


    POTLOK:  cpu time      0.0825: real time      0.1077
    SETDIJ:  cpu time      0.3434: real time      0.3454
     EDDAV:  cpu time    587.0251: real time    588.5381
 BZINTS: Fermi energy:    0.188766;  192.000000 electrons
         Band energy:-0.187909E+04;  BLOECHL correction:    0.000000
       DOS:  cpu time      0.0177: real time      0.0177
    CHARGE:  cpu time      0.1189: real time      0.1192
    MIXING:  cpu time      0.0028: real time      0.0029
    --------------------------------------------
      LOOP:  cpu time    587.5903: real time    589.1308

 eigenvalue-minimisations  :  2700
 total energy-change (2. order) :-0.6782908E-04  (-0.2264397E-05)
 number of electron     192.0000006 magnetization 
 augmentation part        6.1376683 magnetization 

 Free energy of the ion-electron system (eV)
  ---------------------------------------------------
  alpha Z        PSCENC =       842.13085518
  Ewald energy   TEWEN  =    -10379.33692041
  -Hartree energ DENC   =     -3155.26010494
  -exchange      EXHF   =       498.67830268
  -V(xc)+E(xc)   XCENC  =       455.90743436
  PAW double counting   =     20288.03651666   -20146.14617313
  entropy T*S    EENTRO =         0.00000000
  eigenvalues    EBANDS =     -1879.08766066
  atomic energy  EATOM  =     13307.53328571
  Solvation  Ediel_sol  =         0.00000000
  ---------------------------------------------------
  free energy    TOTEN  =      -167.54446455 eV

  energy without entropy =     -167.54446455  energy(sigma->0) =     -167.54446455
  exchange ACFDT corr.  =         0.00000000  see jH, gK, PRB 81, 115126


--------------------------------------------------------------------------------------------------------




--------------------------------------- Iteration      1(  20)  ---------------------------------------


    POTLOK:  cpu time      0.0802: real time      0.0814
    SETDIJ:  cpu time      0.3401: real time      0.3409
     EDDAV:  cpu time    588.9470: real time    590.4747
 BZINTS: Fermi energy:    0.188941;  192.000000 electrons
[...]
   41.642325    0.873642    0.863374    0.866680    0.000000   -0.000000    0.001762
   41.667810    0.873828    0.863576    0.866876    0.000000   -0.000000    0.001759
   41.693295    0.874013    0.863777    0.867072    0.000000   -0.000000    0.001756
   41.718780    0.874198    0.863977    0.867267    0.000000   -0.000000    0.001752
   41.744265    0.874382    0.864177    0.867462    0.000000   -0.000000    0.001749
   41.769750    0.874566    0.864377    0.867656    0.000000   -0.000000    0.001746
   41.795235    0.874750    0.864576    0.867850    0.000000   -0.000000    0.001743
   41.820720    0.874933    0.864774    0.868044    0.000000   -0.000000    0.001740
   41.846205    0.875115    0.864973    0.868237    0.000000   -0.000000    0.001737
   41.871689    0.875298    0.865170    0.868430    0.000000   -0.000000    0.001734
   41.897174    0.875479    0.865367    0.868622    0.000000   -0.000000    0.001731
   41.922659    0.875661    0.865564    0.868814    0.000000   -0.000000    0.001728
   41.948144    0.875842    0.865760    0.869005    0.000000   -0.000000    0.001725
   41.973629    0.876022    0.865956    0.869196    0.000000   -0.000000    0.001723
   41.999114    0.876202    0.866151    0.869386    0.000000   -0.000000    0.001720
   42.024599    0.876382    0.866346    0.869576    0.000000   -0.000000    0.001717
   42.050084    0.876561    0.866541    0.869766    0.000000   -0.000000    0.001714
   42.075569    0.876740    0.866735    0.869955    0.000000   -0.000000    0.001711
   42.101054    0.876919    0.866928    0.870143    0.000000   -0.000000    0.001708
   42.126538    0.877097    0.867121    0.870331    0.000000   -0.000000    0.001705
   42.152023    0.877274    0.867314    0.870519    0.000000   -0.000000    0.001702
   42.177508    0.877452    0.867506    0.870706    0.000000   -0.000000    0.001699
   42.202993    0.877628    0.867698    0.870893    0.000000   -0.000000    0.001696
   42.228478    0.877805    0.867889    0.871080    0.000000   -0.000000    0.001693
   42.253963    0.877981    0.868080    0.871266    0.000000   -0.000000    0.001690
   42.279448    0.878156    0.868270    0.871451    0.000000   -0.000000    0.001688
   42.304933    0.878332    0.868460    0.871637    0.000000   -0.000000    0.001685
   42.330418    0.878506    0.868650    0.871821    0.000000   -0.000000    0.001682
   42.355903    0.878681    0.868839    0.872006    0.000000   -0.000000    0.001679
   42.381387    0.878855    0.869028    0.872189    0.000000   -0.000000    0.001676
   42.406872    0.879028    0.869216    0.872373    0.000000   -0.000000    0.001673
   42.432357    0.879201    0.869404    0.872556    0.000000   -0.000000    0.001671
   42.457842    0.879374    0.869591    0.872739    0.000000   -0.000000    0.001668
   42.483327    0.879547    0.869778    0.872921    0.000000   -0.000000    0.001665
   42.508812    0.879719    0.869964    0.873103    0.000000   -0.000000    0.001662
   42.534297    0.879890    0.870150    0.873284    0.000000   -0.000000    0.001659
   42.559782    0.880061    0.870336    0.873465    0.000000   -0.000000    0.001657
   42.585267    0.880232    0.870521    0.873645    0.000000   -0.000000    0.001654
   42.610752    0.880403    0.870706    0.873826    0.000000   -0.000000    0.001651
   42.636236    0.880573    0.870891    0.874005    0.000000   -0.000000    0.001648
   42.661721    0.880742    0.871074    0.874185    0.000000   -0.000000    0.001646
   42.687206    0.880912    0.871258    0.874363    0.000000   -0.000000    0.001643
   42.712691    0.881081    0.871441    0.874542    0.000000   -0.000000    0.001640
   42.738176    0.881249    0.871624    0.874720    0.000000   -0.000000    0.001637
   42.763661    0.881417    0.871806    0.874898    0.000000   -0.000000    0.001635
   42.789146    0.881585    0.871988    0.875075    0.000000   -0.000000    0.001632
   42.814631    0.881752    0.872169    0.875252    0.000000   -0.000000    0.001629
   42.840116    0.881919    0.872350    0.875428    0.000000   -0.000000    0.001627
   42.865600    0.882086    0.872531    0.875604    0.000000   -0.000000    0.001624
   42.891085    0.882252    0.872711    0.875780    0.000000   -0.000000    0.001621
   42.916570    0.882418    0.872891    0.875955    0.000000   -0.000000    0.001619
   42.942055    0.882584    0.873071    0.876130    0.000000   -0.000000    0.001616
   42.967540    0.882749    0.873250    0.876305    0.000000   -0.000000    0.001613
   42.993025    0.882913    0.873428    0.876479    0.000000   -0.000000    0.001611
   43.018510    0.883078    0.873606    0.876653    0.000000   -0.000000    0.001608
   43.043995    0.883242    0.873784    0.876826    0.000000   -0.000000    0.001605
   43.069480    0.883405    0.873962    0.876999    0.000000   -0.000000    0.001603
   43.094965    0.883569    0.874139    0.877172    0.000000   -0.000000    0.001600
   43.120449    0.883732    0.874315    0.877344    0.000000   -0.000000    0.001598
   43.145934    0.883894    0.874492    0.877516    0.000000   -0.000000    0.001595
   43.171419    0.884056    0.874667    0.877687    0.000000   -0.000000    0.001592
   43.196904    0.884218    0.874843    0.877858    0.000000   -0.000000    0.001590
   43.222389    0.884380    0.875018    0.878029    0.000000   -0.000000    0.001587
   43.247874    0.884541    0.875193    0.878199    0.000000   -0.000000    0.001585
   43.273359    0.884702    0.875367    0.878369    0.000000   -0.000000    0.001582
   43.298844    0.884862    0.875541    0.878538    0.000000   -0.000000    0.001579
   43.324329    0.885022    0.875714    0.878707    0.000000   -0.000000    0.001577
   43.349814    0.885182    0.875887    0.878876    0.000000   -0.000000    0.001574
   43.375298    0.885341    0.876060    0.879045    0.000000   -0.000000    0.001572
   43.400783    0.885500    0.876232    0.879213    0.000000   -0.000000    0.001569
   43.426268    0.885659    0.876404    0.879380    0.000000   -0.000000    0.001567
   43.451753    0.885817    0.876576    0.879547    0.000000   -0.000000    0.001564
   43.477238    0.885975    0.876747    0.879714    0.000000   -0.000000    0.001562
   43.502723    0.886133    0.876918    0.879881    0.000000   -0.000000    0.001559
   43.528208    0.886290    0.877088    0.880047    0.000000   -0.000000    0.001557
   43.553693    0.886447    0.877259    0.880213    0.000000   -0.000000    0.001554
   43.579178    0.886603    0.877428    0.880378    0.000000   -0.000000    0.001552
   43.604663    0.886759    0.877598    0.880543    0.000000   -0.000000    0.001549
   43.630147    0.886915    0.877766    0.880708    0.000000   -0.000000    0.001547
   43.655632    0.887071    0.877935    0.880872    0.000000   -0.000000    0.001544
   43.681117    0.887226    0.878103    0.881036    0.000000   -0.000000    0.001542
   43.706602    0.887381    0.878271    0.881200    0.000000   -0.000000    0.001539
   43.732087    0.887535    0.878439    0.881363    0.000000   -0.000000    0.001537
   43.757572    0.887690    0.878606    0.881526    0.000000   -0.000000    0.001534
   43.783057    0.887843    0.878772    0.881689    0.000000   -0.000000    0.001532
   43.808542    0.887997    0.878939    0.881851    0.000000   -0.000000    0.001529
   43.834027    0.888150    0.879105    0.882013    0.000000   -0.000000    0.001527
   43.859512    0.888303    0.879271    0.882174    0.000000   -0.000000    0.001525
   43.884996    0.888455    0.879436    0.882335    0.000000   -0.000000    0.001522
   43.910481    0.888608    0.879601    0.882496    0.000000   -0.000000    0.001520
   43.935966    0.888760    0.879765    0.882657    0.000000   -0.000000    0.001517
   43.961451    0.888911    0.879930    0.882817    0.000000   -0.000000    0.001515
   43.986936    0.889062    0.880093    0.882977    0.000000   -0.000000    0.001513
   44.012421    0.889213    0.880257    0.883136    0.000000   -0.000000    0.001510
   44.037906    0.889364    0.880420    0.883295    0.000000   -0.000000    0.001508
   44.063391    0.889514    0.880583    0.883454    0.000000   -0.000000    0.001505
   44.088876    0.889664    0.880745    0.883612    0.000000   -0.000000    0.001503
   44.114361    0.889813    0.880907    0.883770    0.000000   -0.000000    0.001501
   44.139845    0.889963    0.881069    0.883928    0.000000   -0.000000    0.001498
   44.165330    0.890111    0.881231    0.884085    0.000000   -0.000000    0.001496
   44.190815    0.890260    0.881392    0.884242    0.000000   -0.000000    0.001494
   44.216300    0.890408    0.881552    0.884399    0.000000   -0.000000    0.001491
   44.241785    0.890556    0.881713    0.884555    0.000000   -0.000000    0.001489
   44.267270    0.890704    0.881873    0.884711    0.000000   -0.000000    0.001487
   44.292755    0.890851    0.882032    0.884867    0.000000   -0.000000    0.001484
   44.318240    0.890998    0.882192    0.885022    0.000000   -0.000000    0.001482
   44.343725    0.891145    0.882351    0.885177    0.000000   -0.000000    0.001480
   44.369210    0.891291    0.882509    0.885332    0.000000   -0.000000    0.001477
   44.394694    0.891438    0.882668    0.885486    0.000000   -0.000000    0.001475
   44.420179    0.891583    0.882826    0.885640    0.000000   -0.000000    0.001473
   44.445664    0.891729    0.882983    0.885794    0.000000   -0.000000    0.001471
   44.471149    0.891874    0.883141    0.885947    0.000000   -0.000000    0.001468
   44.496634    0.892019    0.883298    0.886100    0.000000   -0.000000    0.001466
   44.522119    0.892163    0.883454    0.886253    0.000000   -0.000000    0.001464
   44.547604    0.892308    0.883610    0.886405    0.000000   -0.000000    0.001462
   44.573089    0.892451    0.883766    0.886557    0.000000   -0.000000    0.001459
   44.598574    0.892595    0.883922    0.886709    0.000000   -0.000000    0.001457
   44.624059    0.892738    0.884077    0.886861    0.000000   -0.000000    0.001455
   44.649543    0.892881    0.884232    0.887012    0.000000   -0.000000    0.001453
   44.675028    0.893024    0.884387    0.887162    0.000000   -0.000000    0.001450
   44.700513    0.893167    0.884541    0.887313    0.000000   -0.000000    0.001448
   44.725998    0.893309    0.884695    0.887463    0.000000   -0.000000    0.001446
   44.751483    0.893450    0.884849    0.887613    0.000000   -0.000000    0.001444
   44.776968    0.893592    0.885002    0.887762    0.000000   -0.000000    0.001441
   44.802453    0.893733    0.885155    0.887912    0.000000   -0.000000    0.001439
   44.827938    0.893874    0.885308    0.888060    0.000000   -0.000000    0.001437
   44.853423    0.894015    0.885460    0.888209    0.000000   -0.000000    0.001435
   44.878908    0.894155    0.885612    0.888357    0.000000   -0.000000    0.001433
   44.904392    0.894295    0.885764    0.888505    0.000000   -0.000000    0.001431
   44.929877    0.894435    0.885916    0.888653    0.000000   -0.000000    0.001428
   44.955362    0.894574    0.886067    0.888800    0.000000   -0.000000    0.001426
   44.980847    0.894713    0.886217    0.888947    0.000000   -0.000000    0.001424
   45.006332    0.894852    0.886368    0.889094    0.000000   -0.000000    0.001422
   45.031817    0.894991    0.886518    0.889240    0.000000   -0.000000    0.001420
   45.057302    0.895129    0.886668    0.889386    0.000000   -0.000000    0.001418
   45.082787    0.895267    0.886817    0.889532    0.000000   -0.000000    0.001415
   45.108272    0.895405    0.886967    0.889678    0.000000   -0.000000    0.001413
   45.133757    0.895542    0.887116    0.889823    0.000000   -0.000000    0.001411
   45.159241    0.895679    0.887264    0.889968    0.000000   -0.000000    0.001409
   45.184726    0.895816    0.887412    0.890112    0.000000   -0.000000    0.001407
   45.210211    0.895953    0.887560    0.890257    0.000000   -0.000000    0.001405
   45.235696    0.896089    0.887708    0.890400    0.000000   -0.000000    0.001403
   45.261181    0.896225    0.887855    0.890544    0.000000   -0.000000    0.001401
   45.286666    0.896361    0.888002    0.890688    0.000000   -0.000000    0.001398
   45.312151    0.896496    0.888149    0.890831    0.000000   -0.000000    0.001396
   45.337636    0.896632    0.888296    0.890973    0.000000   -0.000000    0.001394
   45.363121    0.896766    0.888442    0.891116    0.000000   -0.000000    0.001392
   45.388606    0.896901    0.888588    0.891258    0.000000   -0.000000    0.001390
   45.414090    0.897035    0.888733    0.891400    0.000000   -0.000000    0.001388
   45.439575    0.897169    0.888878    0.891542    0.000000   -0.000000    0.001386
   45.465060    0.897303    0.889023    0.891683    0.000000   -0.000000    0.001384
   45.490545    0.897437    0.889168    0.891824    0.000000   -0.000000    0.001382
   45.516030    0.897570    0.889312    0.891965    0.000000   -0.000000    0.001380
   45.541515    0.897703    0.889456    0.892105    0.000000   -0.000000    0.001378
   45.567000    0.897836    0.889600    0.892245    0.000000   -0.000000    0.001376
   45.592485    0.897968    0.889743    0.892385    0.000000   -0.000000    0.001374
   45.617970    0.898100    0.889887    0.892525    0.000000   -0.000000    0.001372
   45.643455    0.898232    0.890029    0.892664    0.000000   -0.000000    0.001369
   45.668939    0.898364    0.890172    0.892803    0.000000   -0.000000    0.001367
   45.694424    0.898495    0.890314    0.892942    0.000000   -0.000000    0.001365
   45.719909    0.898626    0.890456    0.893080    0.000000   -0.000000    0.001363
   45.745394    0.898757    0.890598    0.893218    0.000000   -0.000000    0.001361
   45.770879    0.898887    0.890739    0.893356    0.000000   -0.000000    0.001359
   45.796364    0.899018    0.890881    0.893494    0.000000   -0.000000    0.001357
   45.821849    0.899148    0.891021    0.893631    0.000000   -0.000000    0.001355
   45.847334    0.899277    0.891162    0.893768    0.000000   -0.000000    0.001353
   45.872819    0.899407    0.891302    0.893905    0.000000   -0.000000    0.001351
   45.898304    0.899536    0.891442    0.894041    0.000000   -0.000000    0.001349
   45.923788    0.899665    0.891582    0.894178    0.000000   -0.000000    0.001347
   45.949273    0.899794    0.891721    0.894314    0.000000   -0.000000    0.001345
   45.974758    0.899922    0.891860    0.894449    0.000000   -0.000000    0.001343
   46.000243    0.900050    0.891999    0.894585    0.000000   -0.000000    0.001342
   46.025728    0.900178    0.892138    0.894720    0.000000   -0.000000    0.001340
   46.051213    0.900306    0.892276    0.894855    0.000000   -0.000000    0.001338
   46.076698    0.900433    0.892414    0.894989    0.000000   -0.000000    0.001336
   46.102183    0.900560    0.892552    0.895123    0.000000   -0.000000    0.001334
   46.127668    0.900687    0.892689    0.895257    0.000000   -0.000000    0.001332
   46.153152    0.900814    0.892826    0.895391    0.000000   -0.000000    0.001330
   46.178637    0.900940    0.892963    0.895525    0.000000   -0.000000    0.001328
   46.204122    0.901066    0.893100    0.895658    0.000000   -0.000000    0.001326
   46.229607    0.901192    0.893236    0.895791    0.000000   -0.000000    0.001324
   46.255092    0.901318    0.893372    0.895924    0.000000   -0.000000    0.001322
   46.280577    0.901443    0.893508    0.896056    0.000000   -0.000000    0.001320
   46.306062    0.901568    0.893643    0.896188    0.000000   -0.000000    0.001318
   46.331547    0.901693    0.893779    0.896320    0.000000   -0.000000    0.001316
   46.357032    0.901818    0.893914    0.896452    0.000000   -0.000000    0.001314
   46.382517    0.901942    0.894048    0.896583    0.000000   -0.000000    0.001313
   46.408001    0.902066    0.894183    0.896714    0.000000   -0.000000    0.001311
   46.433486    0.902190    0.894317    0.896845    0.000000   -0.000000    0.001309
   46.458971    0.902314    0.894451    0.896975    0.000000   -0.000000    0.001307
   46.484456    0.902437    0.894584    0.897106    0.000000   -0.000000    0.001305
   46.509941    0.902560    0.894718    0.897236    0.000000   -0.000000    0.001303
   46.535426    0.902683    0.894851    0.897366    0.000000   -0.000000    0.001301
   46.560911    0.902806    0.894984    0.897495    0.000000   -0.000000    0.001299
   46.586396    0.902928    0.895116    0.897624    0.000000   -0.000000    0.001298
   46.611881    0.903050    0.895249    0.897753    0.000000   -0.000000    0.001296
   46.637366    0.903172    0.895381    0.897882    0.000000   -0.000000    0.001294
   46.662850    0.903294    0.895512    0.898011    0.000000   -0.000000    0.001292
   46.688335    0.903415    0.895644    0.898139    0.000000   -0.000000    0.001290
   46.713820    0.903536    0.895775    0.898267    0.000000   -0.000000    0.001288
 
 The outermost node in the dielectric function lies at epsilon=  23.2


--------------------------------------------------------------------------------------------------------


    OPTICS:  cpu time     21.2789: real time     22.5265
    4ORBIT:  cpu time      0.0000: real time      0.0000



 total charge

# of ion       s       p       d       tot
------------------------------------------
    1        1.948   5.409   0.039   7.396
    2        1.948   5.409   0.039   7.396
    3        1.948   5.409   0.039   7.396
    4        1.948   5.409   0.039   7.396
    5        1.946   5.411   0.035   7.393
    6        1.946   5.411   0.035   7.393
    7        1.946   5.411   0.035   7.393
    8        1.946   5.411   0.035   7.393
    9        1.949   5.412   0.046   7.407
   10        1.949   5.412   0.046   7.407
   11        1.949   5.412   0.046   7.407
   12        1.949   5.412   0.046   7.407
   13        0.409   0.462   0.000   0.870
   14        0.409   0.462   0.000   0.870
   15        0.409   0.462   0.000   0.870
   16        0.409   0.462   0.000   0.870
   17        1.552   3.543   0.000   5.095
   18        1.552   3.543   0.000   5.095
   19        1.552   3.543   0.000   5.095
   20        1.552   3.543   0.000   5.095
   21        1.551   3.495   0.000   5.046
   22        1.551   3.495   0.000   5.046
   23        1.551   3.495   0.000   5.046
   24        1.551   3.495   0.000   5.046
   25        1.551   3.495   0.000   5.046
   26        1.551   3.495   0.000   5.046
   27        1.551   3.495   0.000   5.046
   28        1.551   3.495   0.000   5.046
--------------------------------------------------
tot         43.620 108.910   0.481 153.012
 
 BZINTS: Fermi energy:    0.189080;  192.000000 electrons
         Band energy:-0.187898E+04;  BLOECHL correction:    0.000000

 total amount of memory used by VASP MPI-rank0   113264. kBytes
=======================================================================

   base      :      30000. kBytes
   nonl-proj :       4024. kBytes
   fftplans  :       2852. kBytes
   grid      :       3995. kBytes
   one-center:         16. kBytes
   HF        :         67. kBytes
   nonlr-proj:      17359. kBytes
   wavefun   :       4423. kBytes
   fock_wrk  :      50528. kBytes
 
  
  
 General timing and accounting informations for this job:
 ========================================================
  
                  Total CPU time used (sec):    15261.615
                            User time (sec):    13158.916
                          System time (sec):     2102.699
                         Elapsed time (sec):    15317.416
  
                   Maximum memory used (kb):      589104.
                   Average memory used (kb):          N/A
  
                          Minor page faults:      2877515
                          Major page faults:            0
                 Voluntary context switches:        93408
