<?xml version="1.0" encoding="ISO-8859-1"?>
<modeling>
 <generator>
  <i name="program" type="string">vasp </i>
  <i name="version" type="string">6.4.2  </i>
  <i name="subversion" type="string">20Jul23 (build Mar 15 2024 16:31:38) complex                          parallel </i>
  <i name="platform" type="string">LinuxIFC </i>
  <i name="date" type="string">2025 03 19 </i>
  <i name="time" type="string">15:49:48 </i>
 </generator>
 <incar>
  <i type="string" name="PREC">Accurate</i>
  <i type="string" name="ALGO">Fast</i>
  <i type="int" name="ISPIN">     1</i>
  <i type="int" name="ICHARG">    11</i>
  <i type="int" name="NELM">   200</i>
  <i name="EDIFF">      0.00001000</i>
  <i type="int" name="NSW">     0</i>
  <i type="int" name="ISYM">     2</i>
  <i name="ENCUT">    680.00000000</i>
  <i name="ENAUG">   1360.00000000</i>
  <i type="int" name="NBANDS">    29</i>
  <i type="int" name="NEDOS">  2000</i>
  <i type="logical" name="LREAL"> F  </i>
  <i type="int" name="ISMEAR">    -5</i>
  <i name="SIGMA">      0.05000000</i>
  <i type="int" name="LMAXMIX">     4</i>
  <i type="logical" name="LWAVE"> T  </i>
  <i type="logical" name="LCHARG"> F  </i>
  <i type="logical" name="LVTOT"> T  </i>
  <i type="int" name="LORBIT">    11</i>
  <i type="logical" name="LELF"> F  </i>
  <i type="logical" name="LOPTICS"> T  </i>
  <i type="logical" name="LASPH"> T  </i>
  <i type="logical" name="LAECHG"> T  </i>
  <i name="CSHIFT">      0.00001000</i>
  <i type="string" name="GGA">Ps</i>
  <i type="logical" name="LMIXTAU"> T  </i>
 </incar>
 <primitive_cell>
  <structure name="primitive_cell" >
   <crystal>
    <varray name="basis" >
     <v>       4.01975093       0.00000000       2.32080404 </v>
     <v>       1.33991663       3.78985854       2.32080404 </v>
     <v>       0.00000000       0.00000000       4.64161015 </v>
    </varray>
    <i name="volume">     70.71162285 </i>
    <varray name="rec_basis" >
     <v>       0.24877163      -0.08795401       0.00000000 </v>
     <v>       0.00000000       0.26386209       0.00000000 </v>
     <v>      -0.12438576      -0.08795400       0.21544248 </v>
    </varray>
   </crystal>
   <varray name="positions" >
    <v>       0.00000000       0.00000000       0.00000000 </v>
    <v>       0.25000000       0.25000000       0.25000000 </v>
   </varray>
  </structure>
  <varray name="primitive_index" >
   <v type="int" >        1 </v>
   <v type="int" >        2 </v>
  </varray>
 </primitive_cell>
 <kpoints>
  <generation param="Gamma">
   <v type="int" name="divisions">       7        7        7 </v>
   <v name="usershift">      0.00000000       0.00000000       0.00000000 </v>
   <v name="genvec1">      0.14285714      -0.00000000       0.00000000 </v>
   <v name="genvec2">      0.00000000       0.14285714       0.00000000 </v>
   <v name="genvec3">      0.00000000      -0.00000000       0.14285714 </v>
   <v name="shift">      0.00000000       0.00000000       0.00000000 </v>
  </generation>
  <varray name="kpointlist" >
   <v>       0.00000000       0.00000000       0.00000000 </v>
   <v>       0.14285714      -0.00000000       0.00000000 </v>
   <v>       0.28571429       0.00000000       0.00000000 </v>
   <v>       0.42857143       0.00000000       0.00000000 </v>
   <v>       0.14285714       0.14285714       0.00000000 </v>
   <v>       0.28571429       0.14285714       0.00000000 </v>
   <v>       0.42857143       0.14285714       0.00000000 </v>
   <v>      -0.42857143       0.14285714       0.00000000 </v>
   <v>      -0.28571429       0.14285714       0.00000000 </v>
   <v>      -0.14285714       0.14285714       0.00000000 </v>
   <v>       0.28571429       0.28571429       0.00000000 </v>
   <v>       0.42857143       0.28571429       0.00000000 </v>
   <v>      -0.42857143       0.28571429       0.00000000 </v>
   <v>      -0.28571429       0.28571429       0.00000000 </v>
   <v>       0.42857143       0.42857143       0.00000000 </v>
   <v>      -0.42857143       0.42857143       0.00000000 </v>
   <v>       0.42857143       0.28571429       0.14285714 </v>
   <v>      -0.42857143       0.28571429       0.14285714 </v>
   <v>      -0.42857143       0.42857143       0.14285714 </v>
   <v>      -0.28571429       0.42857143       0.14285714 </v>
  </varray>
  <varray name="weights" >
   <v>       0.00291545 </v>
   <v>       0.02332362 </v>
   <v>       0.02332362 </v>
   <v>       0.02332362 </v>
   <v>       0.01749271 </v>
   <v>       0.06997085 </v>
   <v>       0.06997085 </v>
   <v>       0.06997085 </v>
   <v>       0.06997085 </v>
   <v>       0.03498542 </v>
   <v>       0.01749271 </v>
   <v>       0.06997085 </v>
   <v>       0.06997085 </v>
   <v>       0.03498542 </v>
   <v>       0.01749271 </v>
   <v>       0.03498542 </v>
   <v>       0.06997085 </v>
   <v>       0.13994169 </v>
   <v>       0.06997085 </v>
   <v>       0.06997085 </v>
  </varray>
  <varray name="tetrahedronlist"  type="int" >
   <v type="int" >       48        2        3        6       10 </v>
   <v type="int" >       48        6        9       10       17 </v>
   <v type="int" >       24        9        9       10       17 </v>
   <v type="int" >       48        3        6        9       10 </v>
   <v type="int" >       48        9       14       17       18 </v>
   <v type="int" >       48        8        9       14       18 </v>
   <v type="int" >       24        9        9       14       17 </v>
   <v type="int" >       48        8       13       18       18 </v>
   <v type="int" >       48        7        8       13       18 </v>
   <v type="int" >       48        8       13       14       18 </v>
   <v type="int" >       48        7       12       17       18 </v>
   <v type="int" >       48        6        7       12       17 </v>
   <v type="int" >       48        7       12       13       18 </v>
   <v type="int" >       24        6        6       11       17 </v>
   <v type="int" >       24        5        6        6       11 </v>
   <v type="int" >       48        6       11       12       17 </v>
   <v type="int" >       24        5        6        6       10 </v>
   <v type="int" >       48        2        5        6       10 </v>
   <v type="int" >       48        6        7        9       17 </v>
   <v type="int" >       48        3        6        7        9 </v>
   <v type="int" >       48       12       17       18       19 </v>
   <v type="int" >       24       17       18       18       19 </v>
   <v type="int" >       24       14       17       18       18 </v>
   <v type="int" >       48        7        9       17       18 </v>
   <v type="int" >       48       18       19       20       20 </v>
   <v type="int" >       24       18       18       20       20 </v>
   <v type="int" >       48       13       18       18       20 </v>
   <v type="int" >       24       18       18       19       20 </v>
   <v type="int" >       24       14       18       18       20 </v>
   <v type="int" >       48       13       14       18       20 </v>
   <v type="int" >       48       13       18       19       20 </v>
   <v type="int" >       48       12       13       18       19 </v>
   <v type="int" >       24       12       12       17       19 </v>
   <v type="int" >       24       11       12       12       17 </v>
   <v type="int" >       24        6        6       10       17 </v>
   <v type="int" >       48       12       13       16       19 </v>
   <v type="int" >       24       16       19       19       20 </v>
   <v type="int" >       12       19       19       20       20 </v>
   <v type="int" >       24       19       20       20       20 </v>
   <v type="int" >       48       13       16       19       20 </v>
   <v type="int" >        6       20       20       20       20 </v>
   <v type="int" >       48        7        8        8       18 </v>
   <v type="int" >       48        7        8        9       18 </v>
   <v type="int" >       24       13       13       16       20 </v>
   <v type="int" >       24        8        8       18       18 </v>
   <v type="int" >       24        2        2        5       10 </v>
   <v type="int" >       48        3        4        7        9 </v>
   <v type="int" >       48        4        7        8        9 </v>
   <v type="int" >       24       13       13       14       20 </v>
   <v type="int" >       24       12       12       15       19 </v>
   <v type="int" >       24       11       12       12       15 </v>
   <v type="int" >       48       12       15       16       19 </v>
   <v type="int" >       48        4        7        8        8 </v>
   <v type="int" >       12       16       16       19       19 </v>
   <v type="int" >       24       15       16       16       19 </v>
   <v type="int" >       24        4        4        8        8 </v>
   <v type="int" >       12       15       15       16       16 </v>
   <v type="int" >       24        1        2        2        5 </v>
  </varray>
  <i name="volumeweight">      0.00048591 </i>
 </kpoints>
 <parameters>
  <separator name="general" >
   <i type="string" name="SYSTEM">unknown system</i>
   <i type="logical" name="LCOMPAT"> F  </i>
  </separator>
  <separator name="electronic" >
   <i type="string" name="PREC">accura</i>
   <i name="ENMAX">    680.00000000</i>
   <i name="ENAUG">   1360.00000000</i>
   <i name="EDIFF">      0.00001000</i>
   <i type="int" name="IALGO">    68</i>
   <i type="int" name="IWAVPR">    10</i>
   <i type="int" name="NBANDS">    36</i>
   <i type="int" name="NBANDSLOW">    -1</i>
   <i type="int" name="NBANDSHIGH">    -1</i>
   <i name="NELECT">     18.00000000</i>
   <i type="int" name="TURBO">     0</i>
   <i type="int" name="IRESTART">     0</i>
   <i type="int" name="NREBOOT">     0</i>
   <i type="int" name="NMIN">     0</i>
   <i name="EREF">      0.00000000</i>
   <separator name="electronic smearing" >
    <i type="int" name="ISMEAR">    -5</i>
    <i name="SIGMA">      0.05000000</i>
    <i name="KSPACING">      0.50000000</i>
    <i type="logical" name="KGAMMA"> T  </i>
    <i type="logical" name="KBLOWUP"> T  </i>
   </separator>
   <separator name="electronic projectors" >
    <i type="logical" name="LREAL"> F  </i>
    <v name="ROPT">      0.00000000      0.00000000</v>
    <i type="int" name="LMAXPAW">  -100</i>
    <i type="int" name="LMAXMIX">     4</i>
    <i type="logical" name="NLSPLINE"> F  </i>
   </separator>
   <separator name="electronic startup" >
    <i type="int" name="ISTART">     0</i>
    <i type="int" name="ICHARG">    11</i>
    <i type="int" name="INIWAV">     1</i>
   </separator>
   <separator name="electronic spin" >
    <i type="int" name="ISPIN">     1</i>
    <i type="logical" name="LNONCOLLINEAR"> F  </i>
    <v name="MAGMOM">      1.00000000      1.00000000</v>
    <i name="NUPDOWN">     -1.00000000</i>
    <i type="logical" name="LSORBIT"> F  </i>
    <v name="SAXIS">      0.00000000      0.00000000      1.00000000</v>
    <i type="logical" name="LSPIRAL"> F  </i>
    <v name="QSPIRAL">      0.00000000      0.00000000      0.00000000</v>
    <i type="logical" name="LZEROZ"> F  </i>
   </separator>
   <separator name="electronic exchange-correlation" >
    <i type="logical" name="LASPH"> T  </i>
    <i type="logical" name="LMETAGGA"> F  </i>
   </separator>
   <separator name="electronic convergence" >
    <i type="int" name="NELM">   200</i>
    <i type="int" name="NELMDL">    -5</i>
    <i type="int" name="NELMIN">     2</i>
    <i name="ENINI">    680.00000000</i>
    <separator name="electronic convergence detail" >
     <i type="logical" name="LDIAG"> T  </i>
     <i type="logical" name="LSUBROT"> F  </i>
     <i name="WEIMIN">      0.00000000</i>
     <i name="EBREAK">      0.00000007</i>
     <i name="DEPER">      0.30000000</i>
     <i type="int" name="NRMM">     4</i>
     <i name="TIME">      0.40000000</i>
    </separator>
   </separator>
   <separator name="electronic mixer" >
    <i name="AMIX">      0.40000000</i>
    <i name="BMIX">      1.00000000</i>
    <i name="AMIN">      0.10000000</i>
    <i name="AMIX_MAG">      1.60000000</i>
    <i name="BMIX_MAG">      1.00000000</i>
    <separator name="electronic mixer details" >
     <i type="int" name="IMIX">     4</i>
     <i type="logical" name="MIXFIRST"> F  </i>
     <i type="int" name="MAXMIX">   -45</i>
     <i name="WC">    100.00000000</i>
     <i type="int" name="INIMIX">     1</i>
     <i type="int" name="MIXPRE">     1</i>
     <i type="int" name="MREMOVE">     5</i>
    </separator>
   </separator>
   <separator name="electronic dipolcorrection" >
    <i type="logical" name="LDIPOL"> F  </i>
    <i type="logical" name="LMONO"> F  </i>
    <i type="int" name="IDIPOL">     0</i>
    <i name="EPSILON">      1.00000000</i>
    <v name="DIPOL">   -100.00000000   -100.00000000   -100.00000000</v>
    <i name="EFIELD">      0.00000000</i>
   </separator>
  </separator>
  <separator name="grids" >
   <i type="int" name="NGX">    40</i>
   <i type="int" name="NGY">    40</i>
   <i type="int" name="NGZ">    40</i>
   <i type="int" name="NGXF">    80</i>
   <i type="int" name="NGYF">    80</i>
   <i type="int" name="NGZF">    80</i>
   <i type="logical" name="ADDGRID"> F  </i>
  </separator>
  <separator name="ionic" >
   <i type="int" name="NSW">     0</i>
   <i type="int" name="IBRION">    -1</i>
   <i type="int" name="MDALGO">     0</i>
   <i type="int" name="ISIF">     2</i>
   <i name="PSTRESS">      0.00000000</i>
   <i name="EDIFFG">      0.00010000</i>
   <i type="int" name="NFREE">     0</i>
   <i name="POTIM">      0.50000000</i>
   <i name="SMASS">     -3.00000000</i>
   <i name="SCALEE">      1.00000000</i>
  </separator>
  <separator name="ionic md" >
   <i name="TEBEG">      0.00010000</i>
   <i name="TEEND">      0.00010000</i>
   <i type="int" name="NBLOCK">     1</i>
   <i type="int" name="KBLOCK">     1</i>
   <i type="int" name="NPACO">   256</i>
   <i name="APACO">     10.00000000</i>
  </separator>
  <separator name="symmetry" >
   <i type="int" name="ISYM">     2</i>
   <i name="SYMPREC">      0.00001000</i>
  </separator>
  <separator name="dos" >
   <i type="int" name="LORBIT">    11</i>
   <v name="RWIGS">     -1.00000000     -1.00000000</v>
   <i type="int" name="NEDOS">  2000</i>
   <i name="EMIN">     10.00000000</i>
   <i name="EMAX">    -10.00000000</i>
   <i name="EFERMI">      0.00000000</i>
  </separator>
  <separator name="writing" >
   <i type="int" name="NWRITE">     2</i>
   <i type="logical" name="LWAVE"> T  </i>
   <i type="logical" name="LDOWNSAMPLE"> F  </i>
   <i type="logical" name="LCHARG"> F  </i>
   <i type="logical" name="LPARD"> F  </i>
   <i type="logical" name="LVTOT"> T  </i>
   <i type="logical" name="LVHAR"> F  </i>
   <i type="logical" name="LELF"> F  </i>
   <i type="logical" name="LOPTICS"> T  </i>
   <v name="STM">      0.00000000      0.00000000      0.00000000      0.00000000      0.00000000      0.00000000      0.00000000</v>
  </separator>
  <separator name="performance" >
   <i type="int" name="NPAR">    12</i>
   <i type="int" name="NSIM">     4</i>
   <i type="int" name="NBLK">    -1</i>
   <i type="logical" name="LPLANE"> T  </i>
   <i type="logical" name="LSCALAPACK"> T  </i>
   <i type="logical" name="LSCAAWARE"> T  </i>
   <i type="logical" name="LSCALU"> F  </i>
   <i type="logical" name="LASYNC"> F  </i>
   <i type="logical" name="LORBITALREAL"> F  </i>
  </separator>
  <separator name="miscellaneous" >
   <i type="int" name="IDIOT">     3</i>
   <i type="int" name="PHON_NSTRUCT">    -1</i>
   <i type="logical" name="LMUSIC"> F  </i>
   <v name="POMASS">    112.41100000    127.60000000</v>
   <v name="DARWINR">      0.00000000      0.00000000</v>
   <v name="DARWINV">      1.00000000      1.00000000</v>
   <i type="logical" name="LCORR"> T  </i>
  </separator>
  <i type="logical" name="GGA_COMPAT"> T  </i>
  <i type="logical" name="LBERRY"> F  </i>
  <i type="int" name="ICORELEVEL">     0</i>
  <i type="logical" name="LDAU"> F  </i>
  <i type="int" name="I_CONSTRAINED_M">     0</i>
  <separator name="electronic exchange-correlation" >
   <i type="string" name="GGA">PS</i>
   <i type="int" name="VOSKOWN">     0</i>
   <i type="logical" name="LHFCALC"> F  </i>
   <i type="string" name="PRECFOCK"></i>
   <i type="logical" name="LSYMGRAD"> F  </i>
   <i type="logical" name="LHFONE"> F  </i>
   <i type="logical" name="LRHFCALC"> F  </i>
   <i type="logical" name="LTHOMAS"> F  </i>
   <i type="logical" name="LMODELHF"> F  </i>
   <i type="logical" name="LFOCKACE"> F  </i>
   <i name="ENCUT4O">     -1.00000000</i>
   <i type="int" name="EXXOEP">     0</i>
   <i type="int" name="FOURORBIT">     0</i>
   <i name="AEXX">      0.00000000</i>
   <i name="HFALPHA">      0.00000000</i>
   <i name="MCALPHA">      0.00000000</i>
   <i name="ALDAX">      1.00000000</i>
   <i name="AGGAX">      1.00000000</i>
   <i name="ALDAC">      1.00000000</i>
   <i name="AGGAC">      1.00000000</i>
   <i type="int" name="NKREDX">     1</i>
   <i type="int" name="NKREDY">     1</i>
   <i type="int" name="NKREDZ">     1</i>
   <i type="logical" name="SHIFTRED"> F  </i>
   <i type="logical" name="ODDONLY"> F  </i>
   <i type="logical" name="EVENONLY"> F  </i>
   <i type="int" name="LMAXFOCK">     0</i>
   <i type="int" name="NMAXFOCKAE">     0</i>
   <i type="logical" name="LFOCKAEDFT"> F  </i>
   <i name="HFSCREEN">      0.00000000</i>
   <i name="HFSCREENC">      0.00000000</i>
   <i type="int" name="NBANDSGWLOW">     0</i>
  </separator>
  <separator name="vdW DFT" >
   <i type="logical" name="LUSE_VDW"> F  </i>
   <i type="int" name="IVDW_NL">     1</i>
   <i type="logical" name="LSPIN_VDW"> F  </i>
   <i name="Zab_VDW">     -0.84910000</i>
   <i name="PARAM1">      0.12340000</i>
   <i name="PARAM2">      1.00000000</i>
   <i name="PARAM3">      0.00000000</i>
  </separator>
  <separator name="model GW" >
   <i type="int" name="MODEL_GW">     0</i>
   <i name="MODEL_EPS0">     21.21348685</i>
   <i name="MODEL_ALPHA">      1.00000000</i>
  </separator>
  <separator name="linear response parameters" >
   <i type="logical" name="LEPSILON"> F  </i>
   <i type="logical" name="LRPA"> F  </i>
   <i type="logical" name="LNABLA"> F  </i>
   <i type="logical" name="LVEL"> F  </i>
   <i name="CSHIFT">      0.00001000</i>
   <i name="OMEGAMAX">     -1.00000000</i>
   <i name="DEG_THRESHOLD">      0.00200000</i>
   <i name="RTIME">     -0.10000000</i>
   <i name="WPLASMAI">      0.00000000</i>
   <v name="DFIELD">      0.00000000      0.00000000      0.00000000</v>
   <v name="WPLASMA">      0.00000000      0.00000000      0.00000000      0.00000000      0.00000000      0.00000000      0.00000000      0.00000000      0.00000000</v>
  </separator>
  <separator name="orbital magnetization" >
   <i type="logical" name="NUCIND"> F  </i>
   <v name="MAGPOS">      0.00000000      0.00000000      0.00000000</v>
   <i type="logical" name="LNICSALL"> T  </i>
   <i type="logical" name="ORBITALMAG"> F  </i>
   <i type="logical" name="LMAGBLOCH"> F  </i>
   <i type="logical" name="LCHIMAG"> F  </i>
   <i type="logical" name="LGAUGE"> T  </i>
   <i type="int" name="MAGATOM">     0</i>
   <v name="MAGDIPOL">      0.00000000      0.00000000      0.00000000</v>
   <v name="AVECCONST">      0.00000000      0.00000000      0.00000000</v>
  </separator>
  <separator name="response functions" >
   <i type="logical" name="LALL_IN_ONE"> F  </i>
   <i type="int" name="IALL_IN_ONE">    -1</i>
   <i type="int" name="NBANDS_WAVE">    -1</i>
   <i type="logical" name="LFINITE_TEMPERATURE"> F  </i>
   <i type="logical" name="LADDER"> F  </i>
   <i type="logical" name="LRPAFORCE"> F  </i>
   <i type="logical" name="LFXC"> F  </i>
   <i type="logical" name="LHARTREE"> T  </i>
   <i type="int" name="IBSE">     0</i>
   <v type="int" name="KPOINT">    -1     0     0     0</v>
   <i type="logical" name="LTCTC"> F  </i>
   <i type="logical" name="LTCTE"> F  </i>
   <i type="logical" name="LTETE"> F  </i>
   <i type="logical" name="LTRIPLET"> F  </i>
   <i type="logical" name="LFXCEPS"> F  </i>
   <i type="logical" name="LFXHEG"> F  </i>
   <i type="int" name="NATURALO">     2</i>
   <i type="logical" name="LHOLEGF"> F  </i>
   <i type="logical" name="L2ORDER"> F  </i>
   <i type="logical" name="LDMP1"> F  </i>
   <i type="logical" name="LMP2LT"> F  </i>
   <i type="logical" name="LSMP2LT"> F  </i>
   <i type="logical" name="LGWLF"> F  </i>
   <i name="ENCUTGW">     -1.60000002</i>
   <i name="ENCUTGWSOFT">     -1.60000002</i>
   <i name="ENCUTLF">     -1.00000000</i>
   <i type="logical" name="LESF_SPLINES"> F  </i>
   <i type="int" name="LMAXMP2">    -1</i>
   <i name="SCISSOR">      0.00000000</i>
   <i type="int" name="NOMEGA">     0</i>
   <i type="int" name="NOMEGAR">     0</i>
   <i type="int" name="NBANDSGW">    -1</i>
   <i type="int" name="NBANDSO">    -1</i>
   <i type="int" name="NBANDSV">    -1</i>
   <i type="int" name="NELMGW">     1</i>
   <i type="int" name="NELMHF">     1</i>
   <i type="int" name="DIM">     3</i>
   <i type="int" name="IESPILON">     4</i>
   <i type="int" name="ANTIRES">     0</i>
   <i name="OMEGAMAX">    -30.00000000</i>
   <i name="OMEGAMIN">    -30.00000000</i>
   <i name="OMEGATL">   -200.00000000</i>
   <i type="int" name="OMEGAGRID">     0</i>
   <i name="CSHIFT">      0.00001000</i>
   <i type="logical" name="LSELFENERGY"> F  </i>
   <i type="logical" name="LSPECTRAL"> F  </i>
   <i type="logical" name="LSPECTRALGW"> F  </i>
   <i type="logical" name="LSINGLES"> F  </i>
   <i type="logical" name="LFERMIGW"> F  </i>
   <i type="logical" name="ODDONLYGW"> F  </i>
   <i type="logical" name="EVENONLYGW"> F  </i>
   <i type="int" name="NKREDLFX">     1</i>
   <i type="int" name="NKREDLFY">     1</i>
   <i type="int" name="NKREDLFZ">     1</i>
   <i type="int" name="MAXMEM">  2800</i>
   <i type="int" name="TELESCOPE">     0</i>
   <i type="int" name="NTAUPAR">    -1</i>
   <i type="int" name="NOMEGAPAR">    -1</i>
   <i name="DAMP_NEWTON">      0.80000001</i>
   <i name="LAMBDA">      1.00000000</i>
  </separator>
  <separator name="External order field" >
   <i name="OFIELD_KAPPA">      0.00000000</i>
   <v name="OFIELD_K">      0.00000000      0.00000000      0.00000000</v>
   <i name="OFIELD_Q6_NEAR">      0.00000000</i>
   <i name="OFIELD_Q6_FAR">      0.00000000</i>
   <i name="OFIELD_A">      0.00000000</i>
  </separator>
  <separator name="optional k-points parameters" >
   <i type="int" name="KPOINTS_OPT_MODE">     1</i>
   <i type="logical" name="LKPOINTS_OPT"> F  </i>
  </separator>
 </parameters>
 <atominfo>
  <atoms>       2 </atoms>
  <types>       2 </types>
  <array name="atoms" >
   <dimension dim="1">ion</dimension>
   <field type="string">element</field>
   <field type="int">atomtype</field>
   <set>
    <rc><c>Cd</c><c>   1</c></rc>
    <rc><c>Te</c><c>   2</c></rc>
   </set>
  </array>
  <array name="atomtypes" >
   <dimension dim="1">type</dimension>
   <field type="int">atomspertype</field>
   <field type="string">element</field>
   <field>mass</field>
   <field>valence</field>
   <field type="string">pseudopotential</field>
   <set>
    <rc><c>   1</c><c>Cd</c><c>    112.41100000</c><c>     12.00000000</c><c>  PAW_PBE Cd 06Sep2000                  </c></rc>
    <rc><c>   1</c><c>Te</c><c>    127.60000000</c><c>      6.00000000</c><c>  PAW_PBE Te 08Apr2002                  </c></rc>
   </set>
  </array>
 </atominfo>
 <structure name="initialpos" >
  <crystal>
   <varray name="basis" >
    <v>       4.01975093       0.00000000       2.32080404 </v>
    <v>       1.33991663       3.78985854       2.32080404 </v>
    <v>       0.00000000       0.00000000       4.64161015 </v>
   </varray>
   <i name="volume">     70.71162285 </i>
   <varray name="rec_basis" >
    <v>       0.24877163      -0.08795401       0.00000000 </v>
    <v>       0.00000000       0.26386209       0.00000000 </v>
    <v>      -0.12438576      -0.08795400       0.21544248 </v>
   </varray>
  </crystal>
  <varray name="positions" >
   <v>       0.00000000       0.00000000       0.00000000 </v>
   <v>       0.25000000       0.25000000       0.25000000 </v>
  </varray>
 </structure>
 <calculation>
  <scstep>
   <time name="dav">    0.24    0.24</time>
   <time name="total">    0.39    0.39</time>
   <energy>
    <i name="alphaZ">     48.32593859 </i>
    <i name="ewald">  -1031.85467228 </i>
    <i name="hartreedc">   -509.52962874 </i>
    <i name="XCdc">    -20.81468993 </i>
    <i name="pawpsdc">   1683.41897847 </i>
    <i name="pawaedc">  -1611.99481751 </i>
    <i name="eentropy">      0.00000000 </i>
    <i name="bandstr">     58.42053751 </i>
    <i name="atom">   1516.21046352 </i>
    <i name="e_fr_energy">    132.18210962 </i>
    <i name="e_wo_entrp">    132.18210962 </i>
    <i name="e_0_energy">    132.18210962 </i>
   </energy>
  </scstep>
  <scstep>
   <time name="dav">    0.23    0.23</time>
   <time name="total">    0.23    0.23</time>
   <energy>
    <i name="e_fr_energy">     -0.42589689 </i>
    <i name="e_wo_entrp">     -0.42589689 </i>
    <i name="e_0_energy">     -0.42589689 </i>
   </energy>
  </scstep>
  <scstep>
   <time name="dav">    0.23    0.24</time>
   <time name="total">    0.23    0.25</time>
   <energy>
    <i name="e_fr_energy">     -5.45166152 </i>
    <i name="e_wo_entrp">     -5.45166152 </i>
    <i name="e_0_energy">     -5.45166152 </i>
   </energy>
  </scstep>
  <scstep>
   <time name="dav">    0.21    0.22</time>
   <time name="total">    0.21    0.23</time>
   <energy>
    <i name="e_fr_energy">     -5.47991882 </i>
    <i name="e_wo_entrp">     -5.47991882 </i>
    <i name="e_0_energy">     -5.47991882 </i>
   </energy>
  </scstep>
  <scstep>
   <time name="dav">    0.23    0.25</time>
   <time name="total">    0.24    0.25</time>
   <energy>
    <i name="e_fr_energy">     -5.48024152 </i>
    <i name="e_wo_entrp">     -5.48024152 </i>
    <i name="e_0_energy">     -5.48024152 </i>
   </energy>
  </scstep>
  <scstep>
   <time name="diag">    0.08    0.10</time>
   <time name="diis">    0.04    0.04</time>
   <time name="orth">    0.01    0.01</time>
   <time name="total">    0.14    0.15</time>
   <energy>
    <i name="alphaZ">     48.32593859 </i>
    <i name="ewald">  -1031.85467228 </i>
    <i name="hartreedc">   -509.52962874 </i>
    <i name="XCdc">    -20.81468993 </i>
    <i name="pawpsdc">   1683.41897847 </i>
    <i name="pawaedc">  -1611.99481751 </i>
    <i name="eentropy">      0.00000000 </i>
    <i name="bandstr">    -79.24181808 </i>
    <i name="atom">   1516.21046352 </i>
    <i name="e_fr_energy">     -5.48024597 </i>
    <i name="e_wo_entrp">     -5.48024597 </i>
    <i name="e_0_energy">     -5.48024597 </i>
   </energy>
  </scstep>
  <structure>
   <crystal>
    <varray name="basis" >
     <v>       4.01975093       0.00000000       2.32080404 </v>
     <v>       1.33991663       3.78985854       2.32080404 </v>
     <v>       0.00000000       0.00000000       4.64161015 </v>
    </varray>
    <i name="volume">     70.71162285 </i>
    <varray name="rec_basis" >
     <v>       0.24877163      -0.08795401       0.00000000 </v>
     <v>       0.00000000       0.26386209       0.00000000 </v>
     <v>      -0.12438576      -0.08795400       0.21544248 </v>
    </varray>
   </crystal>
   <varray name="positions" >
    <v>       0.00000000       0.00000000       0.00000000 </v>
    <v>       0.25000000       0.25000000       0.25000000 </v>
   </varray>
  </structure>
  <varray name="forces" >
   <v>       0.00000000       0.00000000       0.00000000 </v>
   <v>      -0.00000000      -0.00000000      -0.00000000 </v>
  </varray>
  <varray name="stress" >
   <v>     -12.07814768       0.00000110       0.00000310 </v>
   <v>       0.00000110     -12.07815417       0.00000221 </v>
   <v>       0.00000310       0.00000221     -12.07815596 </v>
  </varray>
  <energy>
   <i name="e_fr_energy">     -5.48024597 </i>
   <i name="e_wo_entrp">     -5.48024597 </i>
   <i name="e_0_energy">     -5.48024597 </i>
  </energy>
  <time name="totalsc">    1.92    2.02</time>
  <eigenvalues>
   <array>
    <dimension dim="1">band</dimension>
    <dimension dim="2">kpoint</dimension>
    <dimension dim="3">spin</dimension>
    <field>eigene</field>
    <field>occ</field>
    <set>
     <set comment="spin 1">
      <set comment="kpoint 1">
       <r>   -9.1237    1.0000 </r>
       <r>   -6.2594    1.0000 </r>
       <r>   -6.2594    1.0000 </r>
       <r>   -6.2594    1.0000 </r>
       <r>   -6.0224    1.0000 </r>
       <r>   -6.0224    1.0000 </r>
       <r>    1.8753    1.0000 </r>
       <r>    1.8753    1.0000 </r>
       <r>    1.8753    1.0000 </r>
       <r>    2.4233    0.0000 </r>
       <r>    6.4433    0.0000 </r>
       <r>    6.4433    0.0000 </r>
       <r>    6.4433    0.0000 </r>
       <r>    9.1205    0.0000 </r>
       <r>   11.1493    0.0000 </r>
       <r>   11.1493    0.0000 </r>
       <r>   11.8480    0.0000 </r>
       <r>   11.8480    0.0000 </r>
       <r>   11.8480    0.0000 </r>
       <r>   14.0902    0.0000 </r>
       <r>   21.4108    0.0000 </r>
       <r>   21.4108    0.0000 </r>
       <r>   21.4108    0.0000 </r>
       <r>   22.1823    0.0000 </r>
       <r>   22.1823    0.0000 </r>
       <r>   22.1823    0.0000 </r>
       <r>   23.1677    0.0000 </r>
       <r>   23.1677    0.0000 </r>
       <r>   23.1677    0.0000 </r>
       <r>   23.9059    0.0000 </r>
       <r>   23.9059    0.0000 </r>
       <r>   28.7822    0.0000 </r>
       <r>   29.8471    0.0000 </r>
       <r>   29.8476    0.0000 </r>
       <r>   29.8537    0.0000 </r>
       <r>   29.8916    0.0000 </r>
      </set>
      <set comment="kpoint 2">
       <r>   -9.0538    1.0000 </r>
       <r>   -6.2466    1.0000 </r>
       <r>   -6.2466    1.0000 </r>
       <r>   -6.2029    1.0000 </r>
       <r>   -6.0233    1.0000 </r>
       <r>   -6.0233    1.0000 </r>
       <r>    0.4285    1.0000 </r>
       <r>    1.7119    1.0000 </r>
       <r>    1.7119    1.0000 </r>
       <r>    3.4529    0.0000 </r>
       <r>    6.4222    0.0000 </r>
       <r>    6.6968    0.0000 </r>
       <r>    6.6968    0.0000 </r>
       <r>   10.0059    0.0000 </r>
       <r>   10.3599    0.0000 </r>
       <r>   10.3599    0.0000 </r>
       <r>   11.3979    0.0000 </r>
       <r>   13.2799    0.0000 </r>
       <r>   13.2799    0.0000 </r>
       <r>   15.4101    0.0000 </r>
       <r>   19.2251    0.0000 </r>
       <r>   19.2251    0.0000 </r>
       <r>   19.6442    0.0000 </r>
       <r>   21.5320    0.0000 </r>
       <r>   22.4232    0.0000 </r>
       <r>   22.4232    0.0000 </r>
       <r>   23.3268    0.0000 </r>
       <r>   23.3268    0.0000 </r>
       <r>   24.5691    0.0000 </r>
       <r>   25.9921    0.0000 </r>
       <r>   25.9921    0.0000 </r>
       <r>   27.7156    0.0000 </r>
       <r>   27.7156    0.0000 </r>
       <r>   28.0088    0.0000 </r>
       <r>   29.4743    0.0000 </r>
       <r>   30.3657    0.0000 </r>
      </set>
      <set comment="kpoint 3">
       <r>   -8.8960    1.0000 </r>
       <r>   -6.2208    1.0000 </r>
       <r>   -6.2207    1.0000 </r>
       <r>   -6.0217    1.0000 </r>
       <r>   -6.0217    1.0000 </r>
       <r>   -6.0149    1.0000 </r>
       <r>   -1.1604    1.0000 </r>
       <r>    1.3956    1.0000 </r>
       <r>    1.3956    1.0000 </r>
       <r>    3.7098    0.0000 </r>
       <r>    7.0206    0.0000 </r>
       <r>    7.0206    0.0000 </r>
       <r>    7.4298    0.0000 </r>
       <r>    9.8997    0.0000 </r>
       <r>   10.3637    0.0000 </r>
       <r>   10.3637    0.0000 </r>
       <r>   13.0901    0.0000 </r>
       <r>   15.3569    0.0000 </r>
       <r>   15.3569    0.0000 </r>
       <r>   16.5592    0.0000 </r>
       <r>   16.5592    0.0000 </r>
       <r>   16.6158    0.0000 </r>
       <r>   17.9979    0.0000 </r>
       <r>   21.8412    0.0000 </r>
       <r>   22.9547    0.0000 </r>
       <r>   22.9548    0.0000 </r>
       <r>   23.4258    0.0000 </r>
       <r>   23.4258    0.0000 </r>
       <r>   23.8945    0.0000 </r>
       <r>   24.4495    0.0000 </r>
       <r>   24.4495    0.0000 </r>
       <r>   26.4886    0.0000 </r>
       <r>   27.8976    0.0000 </r>
       <r>   28.5975    0.0000 </r>
       <r>   28.5985    0.0000 </r>
       <r>   28.9052    0.0000 </r>
      </set>
      <set comment="kpoint 4">
       <r>   -8.7710    1.0000 </r>
       <r>   -6.2041    1.0000 </r>
       <r>   -6.2041    1.0000 </r>
       <r>   -6.0156    1.0000 </r>
       <r>   -6.0156    1.0000 </r>
       <r>   -5.7575    1.0000 </r>
       <r>   -2.2278    1.0000 </r>
       <r>    1.1768    1.0000 </r>
       <r>    1.1768    1.0000 </r>
       <r>    3.5912    0.0000 </r>
       <r>    7.0287    0.0000 </r>
       <r>    7.0287    0.0000 </r>
       <r>    8.6576    0.0000 </r>
       <r>    9.9895    0.0000 </r>
       <r>   11.5388    0.0000 </r>
       <r>   11.5388    0.0000 </r>
       <r>   13.3865    0.0000 </r>
       <r>   13.9731    0.0000 </r>
       <r>   13.9731    0.0000 </r>
       <r>   16.6872    0.0000 </r>
       <r>   18.0762    0.0000 </r>
       <r>   18.0762    0.0000 </r>
       <r>   20.3954    0.0000 </r>
       <r>   21.1023    0.0000 </r>
       <r>   21.1023    0.0000 </r>
       <r>   21.5064    0.0000 </r>
       <r>   22.1424    0.0000 </r>
       <r>   23.5529    0.0000 </r>
       <r>   23.5529    0.0000 </r>
       <r>   23.9179    0.0000 </r>
       <r>   23.9179    0.0000 </r>
       <r>   24.7418    0.0000 </r>
       <r>   26.7864    0.0000 </r>
       <r>   27.8011    0.0000 </r>
       <r>   27.8035    0.0000 </r>
       <r>   27.9919    0.0000 </r>
      </set>
      <set comment="kpoint 5">
       <r>   -9.0306    1.0000 </r>
       <r>   -6.2340    1.0000 </r>
       <r>   -6.2340    1.0000 </r>
       <r>   -6.2018    1.0000 </r>
       <r>   -6.0292    1.0000 </r>
       <r>   -6.0172    1.0000 </r>
       <r>    0.3913    1.0000 </r>
       <r>    1.4344    1.0000 </r>
       <r>    1.4344    1.0000 </r>
       <r>    3.9370    0.0000 </r>
       <r>    5.7090    0.0000 </r>
       <r>    7.1302    0.0000 </r>
       <r>    7.1302    0.0000 </r>
       <r>    9.2358    0.0000 </r>
       <r>   10.4776    0.0000 </r>
       <r>   11.3268    0.0000 </r>
       <r>   12.3926    0.0000 </r>
       <r>   12.3926    0.0000 </r>
       <r>   12.9942    0.0000 </r>
       <r>   16.1552    0.0000 </r>
       <r>   19.0444    0.0000 </r>
       <r>   19.0444    0.0000 </r>
       <r>   19.5382    0.0000 </r>
       <r>   20.2746    0.0000 </r>
       <r>   22.2008    0.0000 </r>
       <r>   22.2008    0.0000 </r>
       <r>   22.6806    0.0000 </r>
       <r>   24.9344    0.0000 </r>
       <r>   25.8434    0.0000 </r>
       <r>   25.8434    0.0000 </r>
       <r>   26.0656    0.0000 </r>
       <r>   26.8943    0.0000 </r>
       <r>   27.8098    0.0000 </r>
       <r>   27.8098    0.0000 </r>
       <r>   28.1713    0.0000 </r>
       <r>   30.0860    0.0000 </r>
      </set>
      <set comment="kpoint 6">
       <r>   -8.9026    1.0000 </r>
       <r>   -6.2142    1.0000 </r>
       <r>   -6.2060    1.0000 </r>
       <r>   -6.0844    1.0000 </r>
       <r>   -6.0128    1.0000 </r>
       <r>   -6.0083    1.0000 </r>
       <r>   -0.7918    1.0000 </r>
       <r>    1.0582    1.0000 </r>
       <r>    1.0813    1.0000 </r>
       <r>    4.4493    0.0000 </r>
       <r>    5.8054    0.0000 </r>
       <r>    7.4650    0.0000 </r>
       <r>    7.6568    0.0000 </r>
       <r>    9.2809    0.0000 </r>
       <r>   11.2311    0.0000 </r>
       <r>   11.2379    0.0000 </r>
       <r>   12.7450    0.0000 </r>
       <r>   13.9809    0.0000 </r>
       <r>   14.9807    0.0000 </r>
       <r>   16.4155    0.0000 </r>
       <r>   16.4678    0.0000 </r>
       <r>   18.2664    0.0000 </r>
       <r>   19.4327    0.0000 </r>
       <r>   19.6498    0.0000 </r>
       <r>   20.5806    0.0000 </r>
       <r>   22.5812    0.0000 </r>
       <r>   23.2973    0.0000 </r>
       <r>   24.2156    0.0000 </r>
       <r>   25.3374    0.0000 </r>
       <r>   25.6169    0.0000 </r>
       <r>   26.1589    0.0000 </r>
       <r>   26.5797    0.0000 </r>
       <r>   27.0001    0.0000 </r>
       <r>   27.4928    0.0000 </r>
       <r>   27.8031    0.0000 </r>
       <r>   28.8341    0.0000 </r>
      </set>
      <set comment="kpoint 7">
       <r>   -8.7681    1.0000 </r>
       <r>   -6.1972    1.0000 </r>
       <r>   -6.1868    1.0000 </r>
       <r>   -6.0401    1.0000 </r>
       <r>   -6.0104    1.0000 </r>
       <r>   -5.7883    1.0000 </r>
       <r>   -1.9235    1.0000 </r>
       <r>    0.6188    1.0000 </r>
       <r>    0.9037    1.0000 </r>
       <r>    4.4036    0.0000 </r>
       <r>    6.4749    0.0000 </r>
       <r>    7.6643    0.0000 </r>
       <r>    7.8943    0.0000 </r>
       <r>   10.3493    0.0000 </r>
       <r>   11.2768    0.0000 </r>
       <r>   12.0485    0.0000 </r>
       <r>   13.2636    0.0000 </r>
       <r>   13.8668    0.0000 </r>
       <r>   15.7182    0.0000 </r>
       <r>   16.4313    0.0000 </r>
       <r>   16.8496    0.0000 </r>
       <r>   17.8187    0.0000 </r>
       <r>   20.0522    0.0000 </r>
       <r>   20.1908    0.0000 </r>
       <r>   20.7305    0.0000 </r>
       <r>   21.3818    0.0000 </r>
       <r>   22.5574    0.0000 </r>
       <r>   23.0538    0.0000 </r>
       <r>   23.3332    0.0000 </r>
       <r>   24.6236    0.0000 </r>
       <r>   24.7687    0.0000 </r>
       <r>   25.2806    0.0000 </r>
       <r>   26.5545    0.0000 </r>
       <r>   26.5719    0.0000 </r>
       <r>   27.7448    0.0000 </r>
       <r>   28.3509    0.0000 </r>
      </set>
      <set comment="kpoint 8">
       <r>   -8.7275    1.0000 </r>
       <r>   -6.1911    1.0000 </r>
       <r>   -6.1865    1.0000 </r>
       <r>   -6.0246    1.0000 </r>
       <r>   -6.0170    1.0000 </r>
       <r>   -5.6713    1.0000 </r>
       <r>   -2.2798    1.0000 </r>
       <r>    0.3612    1.0000 </r>
       <r>    0.9932    1.0000 </r>
       <r>    4.3663    0.0000 </r>
       <r>    6.6436    0.0000 </r>
       <r>    7.4476    0.0000 </r>
       <r>    8.7710    0.0000 </r>
       <r>   10.5047    0.0000 </r>
       <r>   11.3066    0.0000 </r>
       <r>   11.4498    0.0000 </r>
       <r>   13.2780    0.0000 </r>
       <r>   14.3477    0.0000 </r>
       <r>   14.8608    0.0000 </r>
       <r>   16.7894    0.0000 </r>
       <r>   18.3788    0.0000 </r>
       <r>   18.9869    0.0000 </r>
       <r>   19.7219    0.0000 </r>
       <r>   19.9267    0.0000 </r>
       <r>   20.8302    0.0000 </r>
       <r>   20.9977    0.0000 </r>
       <r>   21.2908    0.0000 </r>
       <r>   23.0625    0.0000 </r>
       <r>   23.2426    0.0000 </r>
       <r>   24.0748    0.0000 </r>
       <r>   24.3668    0.0000 </r>
       <r>   24.8856    0.0000 </r>
       <r>   25.1133    0.0000 </r>
       <r>   26.6772    0.0000 </r>
       <r>   27.7180    0.0000 </r>
       <r>   28.0636    0.0000 </r>
      </set>
      <set comment="kpoint 9">
       <r>   -8.8090    1.0000 </r>
       <r>   -6.2044    1.0000 </r>
       <r>   -6.1975    1.0000 </r>
       <r>   -6.0284    1.0000 </r>
       <r>   -6.0246    1.0000 </r>
       <r>   -5.8704    1.0000 </r>
       <r>   -1.5951    1.0000 </r>
       <r>    0.4361    1.0000 </r>
       <r>    1.3021    1.0000 </r>
       <r>    4.4242    0.0000 </r>
       <r>    6.8612    0.0000 </r>
       <r>    7.2325    0.0000 </r>
       <r>    7.5820    0.0000 </r>
       <r>    9.8959    0.0000 </r>
       <r>   10.8093    0.0000 </r>
       <r>   12.0609    0.0000 </r>
       <r>   12.9892    0.0000 </r>
       <r>   14.2977    0.0000 </r>
       <r>   15.7653    0.0000 </r>
       <r>   16.5703    0.0000 </r>
       <r>   16.7452    0.0000 </r>
       <r>   17.6498    0.0000 </r>
       <r>   19.7198    0.0000 </r>
       <r>   19.8846    0.0000 </r>
       <r>   20.8737    0.0000 </r>
       <r>   22.2344    0.0000 </r>
       <r>   22.6351    0.0000 </r>
       <r>   22.8662    0.0000 </r>
       <r>   23.9444    0.0000 </r>
       <r>   24.4207    0.0000 </r>
       <r>   25.2317    0.0000 </r>
       <r>   25.9896    0.0000 </r>
       <r>   26.4674    0.0000 </r>
       <r>   27.5654    0.0000 </r>
       <r>   28.1043    0.0000 </r>
       <r>   28.5234    0.0000 </r>
      </set>
      <set comment="kpoint 10">
       <r>   -8.9547    1.0000 </r>
       <r>   -6.2322    1.0000 </r>
       <r>   -6.2195    1.0000 </r>
       <r>   -6.1115    1.0000 </r>
       <r>   -6.0299    1.0000 </r>
       <r>   -6.0135    1.0000 </r>
       <r>   -0.4397    1.0000 </r>
       <r>    0.9561    1.0000 </r>
       <r>    1.6403    1.0000 </r>
       <r>    4.1638    0.0000 </r>
       <r>    6.3337    0.0000 </r>
       <r>    6.8512    0.0000 </r>
       <r>    7.2900    0.0000 </r>
       <r>    9.6090    0.0000 </r>
       <r>   10.4162    0.0000 </r>
       <r>   11.0890    0.0000 </r>
       <r>   12.3891    0.0000 </r>
       <r>   13.2261    0.0000 </r>
       <r>   15.1639    0.0000 </r>
       <r>   16.3049    0.0000 </r>
       <r>   17.1031    0.0000 </r>
       <r>   19.1151    0.0000 </r>
       <r>   19.1987    0.0000 </r>
       <r>   19.7432    0.0000 </r>
       <r>   20.7654    0.0000 </r>
       <r>   22.4034    0.0000 </r>
       <r>   23.9337    0.0000 </r>
       <r>   24.8417    0.0000 </r>
       <r>   25.3013    0.0000 </r>
       <r>   25.5108    0.0000 </r>
       <r>   26.3641    0.0000 </r>
       <r>   26.9360    0.0000 </r>
       <r>   27.0344    0.0000 </r>
       <r>   28.0833    0.0000 </r>
       <r>   28.1390    0.0000 </r>
       <r>   28.4925    0.0000 </r>
      </set>
      <set comment="kpoint 11">
       <r>   -8.8229    1.0000 </r>
       <r>   -6.1730    1.0000 </r>
       <r>   -6.1730    1.0000 </r>
       <r>   -6.1005    1.0000 </r>
       <r>   -6.0053    1.0000 </r>
       <r>   -5.9420    1.0000 </r>
       <r>   -1.1069    1.0000 </r>
       <r>    0.6737    1.0000 </r>
       <r>    0.6737    1.0000 </r>
       <r>    4.6753    0.0000 </r>
       <r>    5.0506    0.0000 </r>
       <r>    8.6427    0.0000 </r>
       <r>    8.6427    0.0000 </r>
       <r>    8.6576    0.0000 </r>
       <r>   11.8347    0.0000 </r>
       <r>   12.8503    0.0000 </r>
       <r>   13.9820    0.0000 </r>
       <r>   13.9820    0.0000 </r>
       <r>   14.2799    0.0000 </r>
       <r>   16.1501    0.0000 </r>
       <r>   16.1501    0.0000 </r>
       <r>   17.2773    0.0000 </r>
       <r>   17.3837    0.0000 </r>
       <r>   20.1824    0.0000 </r>
       <r>   22.1642    0.0000 </r>
       <r>   22.7931    0.0000 </r>
       <r>   22.7932    0.0000 </r>
       <r>   23.0447    0.0000 </r>
       <r>   23.8269    0.0000 </r>
       <r>   23.8269    0.0000 </r>
       <r>   25.4502    0.0000 </r>
       <r>   26.4984    0.0000 </r>
       <r>   28.1222    0.0000 </r>
       <r>   28.1223    0.0000 </r>
       <r>   28.3033    0.0000 </r>
       <r>   29.4240    0.0000 </r>
      </set>
      <set comment="kpoint 12">
       <r>   -8.7193    1.0000 </r>
       <r>   -6.1603    1.0000 </r>
       <r>   -6.1486    1.0000 </r>
       <r>   -6.0821    1.0000 </r>
       <r>   -6.0026    1.0000 </r>
       <r>   -5.7484    1.0000 </r>
       <r>   -1.8098    1.0000 </r>
       <r>    0.1441    1.0000 </r>
       <r>    0.4608    1.0000 </r>
       <r>    4.7069    0.0000 </r>
       <r>    5.4000    0.0000 </r>
       <r>    8.2049    0.0000 </r>
       <r>    9.0200    0.0000 </r>
       <r>   10.4681    0.0000 </r>
       <r>   12.4393    0.0000 </r>
       <r>   13.0537    0.0000 </r>
       <r>   13.6883    0.0000 </r>
       <r>   14.0488    0.0000 </r>
       <r>   15.4453    0.0000 </r>
       <r>   15.6339    0.0000 </r>
       <r>   16.7931    0.0000 </r>
       <r>   17.3777    0.0000 </r>
       <r>   17.4000    0.0000 </r>
       <r>   19.7088    0.0000 </r>
       <r>   20.6267    0.0000 </r>
       <r>   21.8527    0.0000 </r>
       <r>   21.9634    0.0000 </r>
       <r>   22.8892    0.0000 </r>
       <r>   23.4211    0.0000 </r>
       <r>   23.8845    0.0000 </r>
       <r>   25.1421    0.0000 </r>
       <r>   25.6957    0.0000 </r>
       <r>   25.9203    0.0000 </r>
       <r>   27.8538    0.0000 </r>
       <r>   28.3008    0.0000 </r>
       <r>   28.3098    0.0000 </r>
      </set>
      <set comment="kpoint 13">
       <r>   -8.6704    1.0000 </r>
       <r>   -6.1663    1.0000 </r>
       <r>   -6.1477    1.0000 </r>
       <r>   -6.0545    1.0000 </r>
       <r>   -6.0117    1.0000 </r>
       <r>   -5.5800    1.0000 </r>
       <r>   -2.1701    1.0000 </r>
       <r>   -0.4177    1.0000 </r>
       <r>    0.5532    1.0000 </r>
       <r>    4.7736    0.0000 </r>
       <r>    6.5334    0.0000 </r>
       <r>    8.3242    0.0000 </r>
       <r>    8.6689    0.0000 </r>
       <r>    9.9677    0.0000 </r>
       <r>   11.4878    0.0000 </r>
       <r>   13.1539    0.0000 </r>
       <r>   13.8724    0.0000 </r>
       <r>   14.6408    0.0000 </r>
       <r>   16.2253    0.0000 </r>
       <r>   16.5897    0.0000 </r>
       <r>   17.3771    0.0000 </r>
       <r>   18.1093    0.0000 </r>
       <r>   18.2585    0.0000 </r>
       <r>   19.2812    0.0000 </r>
       <r>   20.1305    0.0000 </r>
       <r>   20.7636    0.0000 </r>
       <r>   21.2381    0.0000 </r>
       <r>   22.6422    0.0000 </r>
       <r>   23.0765    0.0000 </r>
       <r>   23.6024    0.0000 </r>
       <r>   23.8964    0.0000 </r>
       <r>   25.1383    0.0000 </r>
       <r>   25.8066    0.0000 </r>
       <r>   26.0912    0.0000 </r>
       <r>   28.0799    0.0000 </r>
       <r>   28.2391    0.0000 </r>
      </set>
      <set comment="kpoint 14">
       <r>   -8.7095    1.0000 </r>
       <r>   -6.1777    1.0000 </r>
       <r>   -6.1708    1.0000 </r>
       <r>   -6.0331    1.0000 </r>
       <r>   -6.0255    1.0000 </r>
       <r>   -5.6645    1.0000 </r>
       <r>   -1.9631    1.0000 </r>
       <r>   -0.4263    1.0000 </r>
       <r>    0.9050    1.0000 </r>
       <r>    4.9239    0.0000 </r>
       <r>    6.9591    0.0000 </r>
       <r>    7.8872    0.0000 </r>
       <r>    8.0186    0.0000 </r>
       <r>   10.1680    0.0000 </r>
       <r>   10.2604    0.0000 </r>
       <r>   13.2497    0.0000 </r>
       <r>   13.6004    0.0000 </r>
       <r>   14.4486    0.0000 </r>
       <r>   16.2047    0.0000 </r>
       <r>   16.5836    0.0000 </r>
       <r>   17.7159    0.0000 </r>
       <r>   17.9539    0.0000 </r>
       <r>   19.1994    0.0000 </r>
       <r>   19.7355    0.0000 </r>
       <r>   20.6163    0.0000 </r>
       <r>   21.0204    0.0000 </r>
       <r>   21.6056    0.0000 </r>
       <r>   22.6717    0.0000 </r>
       <r>   22.6965    0.0000 </r>
       <r>   23.2861    0.0000 </r>
       <r>   23.7856    0.0000 </r>
       <r>   24.7908    0.0000 </r>
       <r>   25.8022    0.0000 </r>
       <r>   28.0134    0.0000 </r>
       <r>   28.5187    0.0000 </r>
       <r>   28.7806    0.0000 </r>
      </set>
      <set comment="kpoint 15">
       <r>   -8.6623    1.0000 </r>
       <r>   -6.1199    1.0000 </r>
       <r>   -6.1199    1.0000 </r>
       <r>   -6.1114    1.0000 </r>
       <r>   -5.9958    1.0000 </r>
       <r>   -5.6452    1.0000 </r>
       <r>   -2.1357    1.0000 </r>
       <r>    0.1827    1.0000 </r>
       <r>    0.1827    1.0000 </r>
       <r>    4.4170    0.0000 </r>
       <r>    4.6293    0.0000 </r>
       <r>   10.0080    0.0000 </r>
       <r>   10.3277    0.0000 </r>
       <r>   10.3277    0.0000 </r>
       <r>   12.4832    0.0000 </r>
       <r>   13.7717    0.0000 </r>
       <r>   13.7717    0.0000 </r>
       <r>   13.8360    0.0000 </r>
       <r>   15.7071    0.0000 </r>
       <r>   16.2227    0.0000 </r>
       <r>   16.4243    0.0000 </r>
       <r>   16.4243    0.0000 </r>
       <r>   16.9759    0.0000 </r>
       <r>   18.9254    0.0000 </r>
       <r>   19.9958    0.0000 </r>
       <r>   19.9958    0.0000 </r>
       <r>   20.9796    0.0000 </r>
       <r>   23.7478    0.0000 </r>
       <r>   23.7478    0.0000 </r>
       <r>   23.8470    0.0000 </r>
       <r>   24.9626    0.0000 </r>
       <r>   27.0701    0.0000 </r>
       <r>   27.4474    0.0000 </r>
       <r>   27.4475    0.0000 </r>
       <r>   28.2368    0.0000 </r>
       <r>   28.3329    0.0000 </r>
      </set>
      <set comment="kpoint 16">
       <r>   -8.6412    1.0000 </r>
       <r>   -6.1379    1.0000 </r>
       <r>   -6.1194    1.0000 </r>
       <r>   -6.0872    1.0000 </r>
       <r>   -6.0002    1.0000 </r>
       <r>   -5.5574    1.0000 </r>
       <r>   -2.2549    1.0000 </r>
       <r>   -0.2248    1.0000 </r>
       <r>    0.2194    1.0000 </r>
       <r>    4.5478    0.0000 </r>
       <r>    5.2044    0.0000 </r>
       <r>    9.6024    0.0000 </r>
       <r>   10.0252    0.0000 </r>
       <r>   10.3618    0.0000 </r>
       <r>   12.2070    0.0000 </r>
       <r>   13.3412    0.0000 </r>
       <r>   13.8655    0.0000 </r>
       <r>   14.7430    0.0000 </r>
       <r>   15.9284    0.0000 </r>
       <r>   16.0419    0.0000 </r>
       <r>   16.5645    0.0000 </r>
       <r>   17.6938    0.0000 </r>
       <r>   18.1203    0.0000 </r>
       <r>   18.4607    0.0000 </r>
       <r>   19.2782    0.0000 </r>
       <r>   20.2390    0.0000 </r>
       <r>   20.3988    0.0000 </r>
       <r>   21.7266    0.0000 </r>
       <r>   23.8442    0.0000 </r>
       <r>   24.5662    0.0000 </r>
       <r>   25.1864    0.0000 </r>
       <r>   25.6465    0.0000 </r>
       <r>   27.1766    0.0000 </r>
       <r>   27.8731    0.0000 </r>
       <r>   27.9263    0.0000 </r>
       <r>   27.9968    0.0000 </r>
      </set>
      <set comment="kpoint 17">
       <r>   -8.7872    1.0000 </r>
       <r>   -6.1886    1.0000 </r>
       <r>   -6.1792    1.0000 </r>
       <r>   -6.0605    1.0000 </r>
       <r>   -6.0113    1.0000 </r>
       <r>   -5.8568    1.0000 </r>
       <r>   -1.4692    1.0000 </r>
       <r>    0.2079    1.0000 </r>
       <r>    0.9082    1.0000 </r>
       <r>    5.0371    0.0000 </r>
       <r>    5.8386    0.0000 </r>
       <r>    7.1949    0.0000 </r>
       <r>    8.4721    0.0000 </r>
       <r>    9.7021    0.0000 </r>
       <r>   12.0052    0.0000 </r>
       <r>   12.4718    0.0000 </r>
       <r>   13.0908    0.0000 </r>
       <r>   13.7444    0.0000 </r>
       <r>   15.5941    0.0000 </r>
       <r>   16.2766    0.0000 </r>
       <r>   16.7565    0.0000 </r>
       <r>   17.4564    0.0000 </r>
       <r>   19.5416    0.0000 </r>
       <r>   20.1741    0.0000 </r>
       <r>   20.6377    0.0000 </r>
       <r>   21.0910    0.0000 </r>
       <r>   21.7895    0.0000 </r>
       <r>   22.8338    0.0000 </r>
       <r>   24.6256    0.0000 </r>
       <r>   25.0158    0.0000 </r>
       <r>   25.6482    0.0000 </r>
       <r>   26.0065    0.0000 </r>
       <r>   26.5840    0.0000 </r>
       <r>   27.0883    0.0000 </r>
       <r>   27.8385    0.0000 </r>
       <r>   28.1170    0.0000 </r>
      </set>
      <set comment="kpoint 18">
       <r>   -8.6973    1.0000 </r>
       <r>   -6.1745    1.0000 </r>
       <r>   -6.1634    1.0000 </r>
       <r>   -6.0446    1.0000 </r>
       <r>   -6.0156    1.0000 </r>
       <r>   -5.6391    1.0000 </r>
       <r>   -2.0834    1.0000 </r>
       <r>   -0.2068    1.0000 </r>
       <r>    0.6033    1.0000 </r>
       <r>    5.1792    0.0000 </r>
       <r>    6.3958    0.0000 </r>
       <r>    7.3835    0.0000 </r>
       <r>    8.9310    0.0000 </r>
       <r>    9.9224    0.0000 </r>
       <r>   11.6630    0.0000 </r>
       <r>   12.5802    0.0000 </r>
       <r>   13.4119    0.0000 </r>
       <r>   14.8736    0.0000 </r>
       <r>   15.4558    0.0000 </r>
       <r>   16.5781    0.0000 </r>
       <r>   17.8938    0.0000 </r>
       <r>   18.3634    0.0000 </r>
       <r>   18.7919    0.0000 </r>
       <r>   19.6498    0.0000 </r>
       <r>   20.3145    0.0000 </r>
       <r>   20.9816    0.0000 </r>
       <r>   21.5224    0.0000 </r>
       <r>   22.1335    0.0000 </r>
       <r>   23.0304    0.0000 </r>
       <r>   23.6817    0.0000 </r>
       <r>   24.6352    0.0000 </r>
       <r>   25.3219    0.0000 </r>
       <r>   25.6990    0.0000 </r>
       <r>   26.8661    0.0000 </r>
       <r>   27.2679    0.0000 </r>
       <r>   27.6890    0.0000 </r>
      </set>
      <set comment="kpoint 19">
       <r>   -8.6587    1.0000 </r>
       <r>   -6.1432    1.0000 </r>
       <r>   -6.1416    1.0000 </r>
       <r>   -6.0722    1.0000 </r>
       <r>   -6.0062    1.0000 </r>
       <r>   -5.5867    1.0000 </r>
       <r>   -2.1281    1.0000 </r>
       <r>   -0.1706    1.0000 </r>
       <r>    0.0919    1.0000 </r>
       <r>    5.2447    0.0000 </r>
       <r>    5.4039    0.0000 </r>
       <r>    8.0973    0.0000 </r>
       <r>    9.6687    0.0000 </r>
       <r>   10.5701    0.0000 </r>
       <r>   12.3868    0.0000 </r>
       <r>   13.1873    0.0000 </r>
       <r>   13.6924    0.0000 </r>
       <r>   14.9147    0.0000 </r>
       <r>   15.3748    0.0000 </r>
       <r>   15.9657    0.0000 </r>
       <r>   17.3699    0.0000 </r>
       <r>   17.8171    0.0000 </r>
       <r>   18.1153    0.0000 </r>
       <r>   18.8331    0.0000 </r>
       <r>   19.6480    0.0000 </r>
       <r>   20.5041    0.0000 </r>
       <r>   21.8031    0.0000 </r>
       <r>   21.9276    0.0000 </r>
       <r>   22.8110    0.0000 </r>
       <r>   24.3670    0.0000 </r>
       <r>   25.0805    0.0000 </r>
       <r>   25.4967    0.0000 </r>
       <r>   25.6729    0.0000 </r>
       <r>   26.3636    0.0000 </r>
       <r>   27.5651    0.0000 </r>
       <r>   28.7799    0.0000 </r>
      </set>
      <set comment="kpoint 20">
       <r>   -8.6496    1.0000 </r>
       <r>   -6.1558    1.0000 </r>
       <r>   -6.1424    1.0000 </r>
       <r>   -6.0508    1.0000 </r>
       <r>   -6.0187    1.0000 </r>
       <r>   -5.5296    1.0000 </r>
       <r>   -2.1628    1.0000 </r>
       <r>   -0.5077    1.0000 </r>
       <r>    0.1580    1.0000 </r>
       <r>    5.4465    0.0000 </r>
       <r>    6.5559    0.0000 </r>
       <r>    7.6509    0.0000 </r>
       <r>    8.4868    0.0000 </r>
       <r>   10.4575    0.0000 </r>
       <r>   11.8634    0.0000 </r>
       <r>   13.5753    0.0000 </r>
       <r>   14.0084    0.0000 </r>
       <r>   14.9992    0.0000 </r>
       <r>   15.5270    0.0000 </r>
       <r>   16.7869    0.0000 </r>
       <r>   17.5453    0.0000 </r>
       <r>   17.7894    0.0000 </r>
       <r>   18.0514    0.0000 </r>
       <r>   19.0556    0.0000 </r>
       <r>   20.7326    0.0000 </r>
       <r>   21.0387    0.0000 </r>
       <r>   21.4522    0.0000 </r>
       <r>   21.9683    0.0000 </r>
       <r>   22.4445    0.0000 </r>
       <r>   22.8722    0.0000 </r>
       <r>   23.2312    0.0000 </r>
       <r>   25.4468    0.0000 </r>
       <r>   25.7130    0.0000 </r>
       <r>   26.5148    0.0000 </r>
       <r>   27.6617    0.0000 </r>
       <r>   28.4628    0.0000 </r>
      </set>
     </set>
    </set>
   </array>
  </eigenvalues>
  <separator name="orbital magnetization" >
   <v name="MAGDIPOLOUT">      0.00000000      0.00000000      0.00000000</v>
  </separator>
  <dielectricfunction comment="density-density">
   <imag>
    <array>
     <dimension dim="1">gridpoints</dimension>
     <field>energy</field>
     <field>xx</field>
     <field>yy</field>
     <field>zz</field>
     <field>xy</field>
     <field>yz</field>
     <field>zx</field>
     <set>
      <r>     0.0000     0.0000     0.0000     0.0000     0.0000     0.0000     0.0000 </r>
      <r>     0.0237     0.0000     0.0000     0.0000     0.0000     0.0000     0.0000 </r>
      <r>     0.0474     0.0000     0.0000     0.0000     0.0000     0.0000     0.0000 </r>
      <r>     0.0711     0.0000     0.0000     0.0000     0.0000     0.0000     0.0000 </r>
      <r>     0.0948     0.0000     0.0000     0.0000     0.0000     0.0000     0.0000 </r>
      <r>     0.1185     0.0000     0.0000     0.0000     0.0000     0.0000     0.0000 </r>
      <r>     0.1422     0.0000     0.0000     0.0000     0.0000     0.0000     0.0000 </r>
      <r>     0.1659     0.0000     0.0000     0.0000     0.0000     0.0000     0.0000 </r>
      <r>     0.1896     0.0000     0.0000     0.0000     0.0000     0.0000     0.0000 </r>
      <r>     0.2133     0.0000     0.0000     0.0000     0.0000     0.0000     0.0000 </r>
      <r>     0.2371     0.0000     0.0000     0.0000     0.0000     0.0000     0.0000 </r>
      <r>     0.2608     0.0000     0.0000     0.0000     0.0000     0.0000     0.0000 </r>
      <r>     0.2845     0.0000     0.0000     0.0000     0.0000     0.0000     0.0000 </r>
      <r>     0.3082     0.0000     0.0000     0.0000     0.0000     0.0000     0.0000 </r>
      <r>     0.3319     0.0000     0.0000     0.0000     0.0000     0.0000     0.0000 </r>
      <r>     0.3556     0.0000     0.0000     0.0000     0.0000     0.0000     0.0000 </r>
      <r>     0.3793     0.0000     0.0000     0.0000     0.0000     0.0000     0.0000 </r>
      <r>     0.4030     0.0000     0.0000     0.0000     0.0000     0.0000     0.0000 </r>
      <r>     0.4267     0.0000     0.0000     0.0000     0.0000     0.0000     0.0000 </r>
      <r>     0.4504     0.0000     0.0000     0.0000     0.0000     0.0000     0.0000 </r>
      <r>     0.4741     0.0000     0.0000     0.0000     0.0000     0.0000     0.0000 </r>
      <r>     0.4978     0.0000     0.0000     0.0000     0.0000     0.0000     0.0000 </r>
      <r>     0.5215     0.0000     0.0000     0.0000     0.0000     0.0000     0.0000 </r>
      <r>     0.5452     0.0000     0.0000     0.0000     0.0000     0.0000     0.0000 </r>
      <r>     0.5689     0.0026     0.0026     0.0026    -0.0000    -0.0000    -0.0000 </r>
      <r>     0.5926     0.0120     0.0120     0.0120    -0.0000    -0.0000    -0.0000 </r>
      <r>     0.6163     0.0281     0.0281     0.0281    -0.0000    -0.0000    -0.0000 </r>
      <r>     0.6400     0.0509     0.0509     0.0509    -0.0000    -0.0000    -0.0000 </r>
      <r>     0.6638     0.0805     0.0805     0.0805    -0.0000    -0.0000    -0.0000 </r>
      <r>     0.6875     0.1169     0.1169     0.1169    -0.0000    -0.0000    -0.0000 </r>
      <r>     0.7112     0.1600     0.1600     0.1600    -0.0000    -0.0000    -0.0000 </r>
      <r>     0.7349     0.2098     0.2098     0.2098    -0.0000    -0.0000    -0.0000 </r>
      <r>     0.7586     0.2664     0.2664     0.2664    -0.0000    -0.0000    -0.0000 </r>
      <r>     0.7823     0.3297     0.3297     0.3297    -0.0000    -0.0000    -0.0000 </r>
      <r>     0.8060     0.3998     0.3998     0.3998    -0.0000    -0.0000    -0.0000 </r>
      <r>     0.8297     0.4767     0.4767     0.4767    -0.0000    -0.0000    -0.0000 </r>
      <r>     0.8534     0.5602     0.5602     0.5602    -0.0000    -0.0000    -0.0000 </r>
      <r>     0.8771     0.6506     0.6506     0.6506    -0.0000    -0.0000    -0.0000 </r>
      <r>     0.9008     0.7477     0.7477     0.7477    -0.0000    -0.0000    -0.0000 </r>
      <r>     0.9245     0.8515     0.8515     0.8515    -0.0000    -0.0000    -0.0000 </r>
      <r>     0.9482     0.9621     0.9621     0.9621    -0.0000    -0.0000    -0.0000 </r>
      <r>     0.9719     1.0794     1.0794     1.0794    -0.0000    -0.0000    -0.0000 </r>
      <r>     0.9956     1.2035     1.2035     1.2035    -0.0000    -0.0000    -0.0000 </r>
      <r>     1.0193     1.3343     1.3343     1.3343    -0.0000    -0.0000    -0.0000 </r>
      <r>     1.0430     1.4719     1.4719     1.4719    -0.0000    -0.0000    -0.0000 </r>
      <r>     1.0667     1.6162     1.6162     1.6162    -0.0000    -0.0000    -0.0000 </r>
      <r>     1.0905     1.7673     1.7673     1.7673    -0.0000    -0.0000    -0.0000 </r>
      <r>     1.1142     1.9252     1.9252     1.9252    -0.0000    -0.0000    -0.0000 </r>
      <r>     1.1379     2.0897     2.0897     2.0897    -0.0000    -0.0000    -0.0000 </r>
      <r>     1.1616     2.2611     2.2611     2.2611    -0.0000    -0.0000    -0.0000 </r>
      <r>     1.1853     2.4391     2.4391     2.4391    -0.0000    -0.0000    -0.0000 </r>
      <r>     1.2090     2.6240     2.6240     2.6240    -0.0000    -0.0000    -0.0000 </r>
      <r>     1.2327     2.8155     2.8155     2.8155    -0.0000    -0.0000    -0.0000 </r>
      <r>     1.2564     3.0139     3.0139     3.0139    -0.0000    -0.0000    -0.0000 </r>
      <r>     1.2801     3.2189     3.2189     3.2189    -0.0000    -0.0000    -0.0000 </r>
      <r>     1.3038     3.4308     3.4308     3.4308    -0.0000    -0.0000    -0.0000 </r>
      <r>     1.3275     3.6493     3.6493     3.6493    -0.0000    -0.0000    -0.0000 </r>
      <r>     1.3512     3.8747     3.8747     3.8747    -0.0000    -0.0000    -0.0000 </r>
      <r>     1.3749     4.1067     4.1067     4.1067    -0.0000    -0.0000    -0.0000 </r>
      <r>     1.3986     4.3455     4.3455     4.3455    -0.0000    -0.0000    -0.0000 </r>
      <r>     1.4223     4.5911     4.5911     4.5911    -0.0000    -0.0000    -0.0000 </r>
      <r>     1.4460     4.8434     4.8434     4.8434    -0.0000    -0.0000    -0.0000 </r>
      <r>     1.4697     5.1025     5.1025     5.1025    -0.0000    -0.0000    -0.0000 </r>
      <r>     1.4934     5.3683     5.3683     5.3683    -0.0000    -0.0000    -0.0000 </r>
      <r>     1.5172     5.6409     5.6409     5.6409    -0.0000    -0.0000    -0.0000 </r>
      <r>     1.5409     5.9202     5.9202     5.9202    -0.0000    -0.0000    -0.0000 </r>
      <r>     1.5646     6.2063     6.2063     6.2063    -0.0000    -0.0000    -0.0000 </r>
      <r>     1.5883     6.4991     6.4991     6.4991    -0.0000    -0.0000    -0.0000 </r>
      <r>     1.6120     6.7986     6.7986     6.7986    -0.0000    -0.0000    -0.0000 </r>
      <r>     1.6357     7.1050     7.1050     7.1050    -0.0000    -0.0000    -0.0000 </r>
      <r>     1.6594     7.4180     7.4180     7.4180    -0.0000    -0.0000    -0.0000 </r>
      <r>     1.6831     7.7378     7.7378     7.7378    -0.0000    -0.0000    -0.0000 </r>
      <r>     1.7068     8.0644     8.0644     8.0644    -0.0000    -0.0000    -0.0000 </r>
      <r>     1.7305     8.3977     8.3977     8.3977    -0.0000    -0.0000    -0.0000 </r>
      <r>     1.7542     8.3847     8.3847     8.3847    -0.0000    -0.0000    -0.0000 </r>
      <r>     1.7779     8.1064     8.1064     8.1064    -0.0000    -0.0000    -0.0000 </r>
      <r>     1.8016     7.8438     7.8438     7.8438    -0.0000    -0.0000    -0.0000 </r>
      <r>     1.8253     7.5967     7.5967     7.5967    -0.0000    -0.0000    -0.0000 </r>
      <r>     1.8490     7.3651     7.3651     7.3651    -0.0000    -0.0000    -0.0000 </r>
      <r>     1.8727     7.1492     7.1492     7.1492    -0.0000    -0.0000    -0.0000 </r>
      <r>     1.8964     6.9488     6.9488     6.9488    -0.0000    -0.0000    -0.0000 </r>
      <r>     1.9201     6.7641     6.7641     6.7641    -0.0000    -0.0000    -0.0000 </r>
      <r>     1.9439     6.5949     6.5949     6.5949    -0.0000    -0.0000    -0.0000 </r>
      <r>     1.9676     6.4413     6.4413     6.4413    -0.0000    -0.0000    -0.0000 </r>
      <r>     1.9913     6.3033     6.3033     6.3033    -0.0000    -0.0000    -0.0000 </r>
      <r>     2.0150     6.1808     6.1808     6.1808    -0.0000    -0.0000    -0.0000 </r>
      <r>     2.0387     6.0740     6.0740     6.0740    -0.0000    -0.0000    -0.0000 </r>
      <r>     2.0624     5.9827     5.9827     5.9827    -0.0000    -0.0000    -0.0000 </r>
      <r>     2.0861     5.9070     5.9070     5.9070    -0.0000    -0.0000    -0.0000 </r>
      <r>     2.1098     5.8469     5.8469     5.8469    -0.0000    -0.0000    -0.0000 </r>
      <r>     2.1335     5.8024     5.8024     5.8024    -0.0000    -0.0000    -0.0000 </r>
      <r>     2.1572     5.7734     5.7734     5.7734    -0.0000    -0.0000    -0.0000 </r>
      <r>     2.1809     5.7601     5.7601     5.7601    -0.0000    -0.0000    -0.0000 </r>
      <r>     2.2046     5.7623     5.7623     5.7623    -0.0000    -0.0000    -0.0000 </r>
      <r>     2.2283     5.7801     5.7801     5.7801    -0.0000    -0.0000    -0.0000 </r>
      <r>     2.2520     5.8135     5.8135     5.8135    -0.0000    -0.0000    -0.0000 </r>
      <r>     2.2757     5.8625     5.8625     5.8625    -0.0000    -0.0000    -0.0000 </r>
      <r>     2.2994     5.9270     5.9270     5.9270    -0.0000    -0.0000    -0.0000 </r>
      <r>     2.3231     6.0090     6.0090     6.0090    -0.0000    -0.0000    -0.0000 </r>
      <r>     2.3468     6.1275     6.1275     6.1275    -0.0000    -0.0000    -0.0000 </r>
      <r>     2.3705     6.2878     6.2878     6.2878    -0.0000    -0.0000    -0.0000 </r>
      <r>     2.3943     6.4897     6.4897     6.4897    -0.0000    -0.0000    -0.0000 </r>
      <r>     2.4180     6.7454     6.7454     6.7454    -0.0000    -0.0000    -0.0000 </r>
      <r>     2.4417     7.0846     7.0846     7.0846    -0.0000    -0.0000    -0.0000 </r>
      <r>     2.4654     7.4211     7.4211     7.4211    -0.0000    -0.0000    -0.0000 </r>
      <r>     2.4891     7.7548     7.7548     7.7548    -0.0000    -0.0000    -0.0000 </r>
      <r>     2.5128     8.0855     8.0855     8.0855    -0.0000    -0.0000    -0.0000 </r>
      <r>     2.5365     8.4097     8.4097     8.4097    -0.0000    -0.0000    -0.0000 </r>
      <r>     2.5602     8.7255     8.7255     8.7255    -0.0000    -0.0000    -0.0000 </r>
      <r>     2.5839     9.0327     9.0327     9.0327    -0.0000    -0.0000    -0.0000 </r>
      <r>     2.6076     9.3314     9.3314     9.3314    -0.0000    -0.0000    -0.0000 </r>
      <r>     2.6313     9.6216     9.6216     9.6216    -0.0000    -0.0000    -0.0000 </r>
      <r>     2.6550     9.9033     9.9033     9.9033    -0.0000    -0.0000    -0.0000 </r>
      <r>     2.6787    10.1764    10.1764    10.1764    -0.0000    -0.0000    -0.0000 </r>
      <r>     2.7024    10.4410    10.4410    10.4410    -0.0000    -0.0000    -0.0000 </r>
      <r>     2.7261    10.6971    10.6971    10.6971    -0.0000    -0.0000    -0.0000 </r>
      <r>     2.7498    10.9446    10.9446    10.9446    -0.0000    -0.0000    -0.0000 </r>
      <r>     2.7735    11.1836    11.1836    11.1836    -0.0000    -0.0000    -0.0000 </r>
      <r>     2.7972    11.4140    11.4140    11.4141    -0.0000    -0.0000    -0.0000 </r>
      <r>     2.8210    11.6360    11.6360    11.6360    -0.0000    -0.0000    -0.0000 </r>
      <r>     2.8447    11.8494    11.8494    11.8494    -0.0000    -0.0000    -0.0000 </r>
      <r>     2.8684    12.0542    12.0543    12.0543    -0.0000    -0.0000    -0.0000 </r>
      <r>     2.8921    12.2506    12.2506    12.2506    -0.0000    -0.0000    -0.0000 </r>
      <r>     2.9158    12.4384    12.4384    12.4384    -0.0000    -0.0000    -0.0000 </r>
      <r>     2.9395    12.6177    12.6177    12.6177    -0.0000    -0.0000    -0.0000 </r>
      <r>     2.9632    12.7884    12.7884    12.7884    -0.0000    -0.0000    -0.0000 </r>
      <r>     2.9869    12.9506    12.9506    12.9506    -0.0000    -0.0000    -0.0000 </r>
      <r>     3.0106    13.1043    13.1043    13.1043    -0.0000    -0.0000    -0.0000 </r>
      <r>     3.0343    13.1494    13.1494    13.1494    -0.0000    -0.0000    -0.0000 </r>
      <r>     3.0580    13.0525    13.0525    13.0525    -0.0000    -0.0000    -0.0000 </r>
      <r>     3.0817    12.9559    12.9559    12.9559    -0.0000    -0.0000    -0.0000 </r>
      <r>     3.1054    12.8593    12.8593    12.8593    -0.0000    -0.0000    -0.0000 </r>
      <r>     3.1291    12.7528    12.7528    12.7528    -0.0000    -0.0000    -0.0000 </r>
      <r>     3.1528    12.6166    12.6166    12.6166    -0.0000    -0.0000    -0.0000 </r>
      <r>     3.1765    12.4712    12.4712    12.4712    -0.0000    -0.0000    -0.0000 </r>
      <r>     3.2002    12.3166    12.3166    12.3166    -0.0000    -0.0000    -0.0000 </r>
      <r>     3.2239    12.1530    12.1530    12.1530    -0.0000    -0.0000    -0.0000 </r>
      <r>     3.2477    11.9808    11.9808    11.9808    -0.0000    -0.0000    -0.0000 </r>
      <r>     3.2714    11.8000    11.8000    11.8000    -0.0000    -0.0000    -0.0000 </r>
      <r>     3.2951    11.6106    11.6106    11.6106    -0.0000    -0.0000    -0.0000 </r>
      <r>     3.3188    11.4126    11.4126    11.4126    -0.0000    -0.0000    -0.0000 </r>
      <r>     3.3425    11.2061    11.2061    11.2061    -0.0000    -0.0000    -0.0000 </r>
      <r>     3.3662    10.9909    10.9909    10.9909    -0.0000    -0.0000    -0.0000 </r>
      <r>     3.3899    10.5972    10.5972    10.5972    -0.0000    -0.0000    -0.0000 </r>
      <r>     3.4136    10.2450    10.2450    10.2450    -0.0000    -0.0000    -0.0000 </r>
      <r>     3.4373     9.9885     9.9885     9.9885    -0.0000    -0.0000    -0.0000 </r>
      <r>     3.4610     9.8258     9.8258     9.8258    -0.0000    -0.0000    -0.0000 </r>
      <r>     3.4847     9.7569     9.7569     9.7569    -0.0000    -0.0000    -0.0000 </r>
      <r>     3.5084     9.7761     9.7761     9.7761    -0.0000    -0.0000    -0.0000 </r>
      <r>     3.5321     9.8185     9.8185     9.8185    -0.0000    -0.0000    -0.0000 </r>
      <r>     3.5558     9.8651     9.8651     9.8651    -0.0000    -0.0000    -0.0000 </r>
      <r>     3.5795     9.9092     9.9092     9.9092    -0.0000    -0.0000    -0.0000 </r>
      <r>     3.6032     9.9494     9.9494     9.9494    -0.0000    -0.0000    -0.0000 </r>
      <r>     3.6269     9.9856     9.9856     9.9856    -0.0000    -0.0000    -0.0000 </r>
      <r>     3.6506    10.0178    10.0178    10.0178    -0.0000    -0.0000    -0.0000 </r>
      <r>     3.6744    10.0460    10.0460    10.0460    -0.0000    -0.0000    -0.0000 </r>
      <r>     3.6981    10.0703    10.0703    10.0703    -0.0000    -0.0000    -0.0000 </r>
      <r>     3.7218    10.0905    10.0906    10.0906    -0.0000    -0.0000    -0.0000 </r>
      <r>     3.7455    10.1068    10.1069    10.1069    -0.0000    -0.0000    -0.0000 </r>
      <r>     3.7692    10.1192    10.1192    10.1192    -0.0000    -0.0000    -0.0000 </r>
      <r>     3.7929    10.1265    10.1265    10.1265    -0.0000    -0.0000    -0.0000 </r>
      <r>     3.8166    10.1161    10.1161    10.1161    -0.0000    -0.0000    -0.0000 </r>
      <r>     3.8403    10.0842    10.0842    10.0842    -0.0000    -0.0000    -0.0000 </r>
      <r>     3.8640    10.0308    10.0308    10.0308    -0.0000    -0.0000    -0.0000 </r>
      <r>     3.8877     9.9558     9.9558     9.9558    -0.0000    -0.0000    -0.0000 </r>
      <r>     3.9114     9.8593     9.8593     9.8593    -0.0000    -0.0000    -0.0000 </r>
      <r>     3.9351     9.7412     9.7412     9.7412    -0.0000    -0.0000    -0.0000 </r>
      <r>     3.9588     9.6017     9.6017     9.6017    -0.0000    -0.0000    -0.0000 </r>
      <r>     3.9825     9.4405     9.4405     9.4405    -0.0000    -0.0000    -0.0000 </r>
      <r>     4.0062     9.3076     9.3076     9.3076    -0.0000    -0.0000    -0.0000 </r>
      <r>     4.0299     9.4130     9.4130     9.4130    -0.0000    -0.0000    -0.0000 </r>
      <r>     4.0536     9.6220     9.6220     9.6220    -0.0000    -0.0000    -0.0000 </r>
      <r>     4.0773     9.9361     9.9361     9.9361    -0.0000    -0.0000    -0.0000 </r>
      <r>     4.1011    10.3551    10.3551    10.3551    -0.0000    -0.0000    -0.0000 </r>
      <r>     4.1248    10.8791    10.8791    10.8791    -0.0000    -0.0000    -0.0000 </r>
      <r>     4.1485    11.4197    11.4197    11.4197    -0.0000    -0.0000    -0.0000 </r>
      <r>     4.1722    11.8106    11.8107    11.8107    -0.0000    -0.0000    -0.0000 </r>
      <r>     4.1959    12.0480    12.0480    12.0480    -0.0000    -0.0000    -0.0000 </r>
      <r>     4.2196    12.1318    12.1318    12.1318    -0.0000    -0.0000    -0.0000 </r>
      <r>     4.2433    11.8640    11.8640    11.8640    -0.0000    -0.0000    -0.0000 </r>
      <r>     4.2670    13.1673    13.1674    13.1674    -0.0000    -0.0000    -0.0000 </r>
      <r>     4.2907    14.1368    14.1369    14.1369    -0.0000    -0.0000    -0.0000 </r>
      <r>     4.3144    13.8102    13.8102    13.8102    -0.0000    -0.0000    -0.0000 </r>
      <r>     4.3381    12.9270    12.9270    12.9270    -0.0000    -0.0000    -0.0000 </r>
      <r>     4.3618    12.7576    12.7576    12.7576    -0.0000    -0.0000    -0.0000 </r>
      <r>     4.3855    12.6484    12.6484    12.6484    -0.0000    -0.0000    -0.0000 </r>
      <r>     4.4092    12.5783    12.5784    12.5784    -0.0000    -0.0000    -0.0000 </r>
      <r>     4.4329    12.5415    12.5415    12.5415    -0.0000    -0.0000    -0.0000 </r>
      <r>     4.4566    12.5470    12.5470    12.5470    -0.0000    -0.0000    -0.0000 </r>
      <r>     4.4803    12.5848    12.5848    12.5848    -0.0000    -0.0000    -0.0000 </r>
      <r>     4.5040    12.6375    12.6375    12.6375    -0.0000    -0.0000    -0.0000 </r>
      <r>     4.5277    12.7050    12.7050    12.7050    -0.0000    -0.0000    -0.0000 </r>
      <r>     4.5515    12.7873    12.7873    12.7873    -0.0000    -0.0000    -0.0000 </r>
      <r>     4.5752    12.8815    12.8815    12.8815    -0.0000    -0.0000    -0.0000 </r>
      <r>     4.5989    12.9481    12.9481    12.9481    -0.0000    -0.0000    -0.0000 </r>
      <r>     4.6226    12.9425    12.9425    12.9425    -0.0000    -0.0000    -0.0000 </r>
      <r>     4.6463    12.8638    12.8638    12.8638    -0.0000    -0.0000    -0.0000 </r>
      <r>     4.6700    12.7121    12.7121    12.7121    -0.0000    -0.0000    -0.0000 </r>
      <r>     4.6937    12.4872    12.4872    12.4872    -0.0000    -0.0000    -0.0000 </r>
      <r>     4.7174    11.4089    11.4090    11.4090    -0.0000    -0.0000    -0.0000 </r>
      <r>     4.7411    11.1619    11.1619    11.1619    -0.0000    -0.0000    -0.0000 </r>
      <r>     4.7648    10.8310    10.8310    10.8310    -0.0000    -0.0000    -0.0000 </r>
      <r>     4.7885    10.5317    10.5317    10.5317    -0.0000    -0.0000    -0.0000 </r>
      <r>     4.8122    10.2614    10.2614    10.2614    -0.0000    -0.0000    -0.0000 </r>
      <r>     4.8359    10.0193    10.0193    10.0193    -0.0000    -0.0000    -0.0000 </r>
      <r>     4.8596     9.8026     9.8026     9.8026    -0.0000    -0.0000    -0.0000 </r>
      <r>     4.8833     9.6101     9.6101     9.6101    -0.0000    -0.0000    -0.0000 </r>
      <r>     4.9070     9.4419     9.4419     9.4419    -0.0000    -0.0000    -0.0000 </r>
      <r>     4.9307     9.2981     9.2981     9.2981    -0.0000    -0.0000    -0.0000 </r>
      <r>     4.9544     9.2454     9.2454     9.2454    -0.0000    -0.0000    -0.0000 </r>
      <r>     4.9782     9.1456     9.1456     9.1456    -0.0000    -0.0000    -0.0000 </r>
      <r>     5.0019     9.0186     9.0186     9.0186    -0.0000    -0.0000    -0.0000 </r>
      <r>     5.0256     8.8900     8.8900     8.8900    -0.0000    -0.0000    -0.0000 </r>
      <r>     5.0493     8.7673     8.7673     8.7673    -0.0000    -0.0000    -0.0000 </r>
      <r>     5.0730     8.6504     8.6504     8.6504    -0.0000    -0.0000    -0.0000 </r>
      <r>     5.0967     8.5394     8.5394     8.5394    -0.0000    -0.0000    -0.0000 </r>
      <r>     5.1204     8.4343     8.4343     8.4343    -0.0000    -0.0000    -0.0000 </r>
      <r>     5.1441     8.3350     8.3350     8.3350    -0.0000    -0.0000    -0.0000 </r>
      <r>     5.1678     8.3702     8.3702     8.3702    -0.0000    -0.0000    -0.0000 </r>
      <r>     5.1915     8.4819     8.4820     8.4820    -0.0000    -0.0000    -0.0000 </r>
      <r>     5.2152     8.5991     8.5991     8.5991    -0.0000    -0.0000    -0.0000 </r>
      <r>     5.2389     8.7205     8.7205     8.7205    -0.0000    -0.0000    -0.0000 </r>
      <r>     5.2626     8.8542     8.8542     8.8542    -0.0000    -0.0000    -0.0000 </r>
      <r>     5.2863     9.0001     9.0001     9.0001    -0.0000    -0.0000    -0.0000 </r>
      <r>     5.3100     7.9538     7.9539     7.9539    -0.0000    -0.0000    -0.0000 </r>
      <r>     5.3337     6.7711     6.7711     6.7711    -0.0000    -0.0000    -0.0000 </r>
      <r>     5.3574     6.7948     6.7948     6.7948    -0.0000    -0.0000    -0.0000 </r>
      <r>     5.3811     6.7765     6.7765     6.7765    -0.0000    -0.0000    -0.0000 </r>
      <r>     5.4049     6.7239     6.7239     6.7239    -0.0000    -0.0000    -0.0000 </r>
      <r>     5.4286     6.6984     6.6984     6.6984    -0.0000    -0.0000    -0.0000 </r>
      <r>     5.4523     6.8247     6.8247     6.8247    -0.0000    -0.0000    -0.0000 </r>
      <r>     5.4760     6.8856     6.8856     6.8856    -0.0000    -0.0000    -0.0000 </r>
      <r>     5.4997     6.8756     6.8756     6.8756    -0.0000    -0.0000    -0.0000 </r>
      <r>     5.5234     6.7947     6.7947     6.7947    -0.0000    -0.0000    -0.0000 </r>
      <r>     5.5471     6.6431     6.6431     6.6431    -0.0000    -0.0000    -0.0000 </r>
      <r>     5.5708     6.9297     6.9297     6.9297    -0.0000    -0.0000    -0.0000 </r>
      <r>     5.5945     8.8103     8.8104     8.8104    -0.0000    -0.0000    -0.0000 </r>
      <r>     5.6182    10.3480    10.3480    10.3480    -0.0000    -0.0000    -0.0000 </r>
      <r>     5.6419    11.6173    11.6173    11.6173    -0.0000    -0.0000    -0.0000 </r>
      <r>     5.6656    11.5943    11.5943    11.5943    -0.0000    -0.0000    -0.0000 </r>
      <r>     5.6893    10.8709    10.8709    10.8709    -0.0000    -0.0000    -0.0000 </r>
      <r>     5.7130    10.1908    10.1908    10.1908    -0.0000    -0.0000    -0.0000 </r>
      <r>     5.7367     9.5523     9.5523     9.5523    -0.0000    -0.0000    -0.0000 </r>
      <r>     5.7604     8.9554     8.9554     8.9554    -0.0000    -0.0000    -0.0000 </r>
      <r>     5.7841     8.4001     8.4001     8.4001    -0.0000    -0.0000    -0.0000 </r>
      <r>     5.8078     7.9076     7.9076     7.9076    -0.0000    -0.0000    -0.0000 </r>
      <r>     5.8316     7.4866     7.4866     7.4866    -0.0000    -0.0000    -0.0000 </r>
      <r>     5.8553     7.1781     7.1781     7.1781    -0.0000    -0.0000    -0.0000 </r>
      <r>     5.8790     7.2043     7.2043     7.2043    -0.0000    -0.0000    -0.0000 </r>
      <r>     5.9027     7.2151     7.2152     7.2152    -0.0000    -0.0000    -0.0000 </r>
      <r>     5.9264     7.2116     7.2116     7.2116    -0.0000    -0.0000    -0.0000 </r>
      <r>     5.9501     7.1815     7.1815     7.1815    -0.0000    -0.0000    -0.0000 </r>
      <r>     5.9738     7.1229     7.1229     7.1229    -0.0000    -0.0000    -0.0000 </r>
      <r>     5.9975     7.0681     7.0681     7.0681    -0.0000    -0.0000    -0.0000 </r>
      <r>     6.0212     7.0768     7.0768     7.0768    -0.0000    -0.0000    -0.0000 </r>
      <r>     6.0449     7.0762     7.0762     7.0762    -0.0000    -0.0000    -0.0000 </r>
      <r>     6.0686     7.0632     7.0632     7.0632    -0.0000    -0.0000    -0.0000 </r>
      <r>     6.0923     7.0350     7.0350     7.0350    -0.0000    -0.0000    -0.0000 </r>
      <r>     6.1160     6.9916     6.9916     6.9916    -0.0000    -0.0000    -0.0000 </r>
      <r>     6.1397     6.9328     6.9328     6.9328    -0.0000    -0.0000    -0.0000 </r>
      <r>     6.1634     6.8587     6.8587     6.8587    -0.0000    -0.0000    -0.0000 </r>
      <r>     6.1871     6.7694     6.7695     6.7695    -0.0000    -0.0000    -0.0000 </r>
      <r>     6.2108     6.6651     6.6651     6.6651    -0.0000    -0.0000    -0.0000 </r>
      <r>     6.2345     6.5457     6.5457     6.5457    -0.0000    -0.0000    -0.0000 </r>
      <r>     6.2583     6.4112     6.4112     6.4112    -0.0000    -0.0000    -0.0000 </r>
[...]
        <r>  0.0037  0.0105  0.0052  0.0036  0.0057  0.0320  0.0689  0.0067  0.0242 </r>
       </set>
       <set comment="band 24">
        <r>  0.0046  0.0106  0.0028  0.0040  0.0066  0.0052  0.0006  0.0099  0.0294 </r>
        <r>  0.0044  0.0084  0.0013  0.0003  0.0356  0.0074  0.0846  0.0041  0.0651 </r>
       </set>
       <set comment="band 25">
        <r>  0.0007  0.0224  0.0389  0.0021  0.0013  0.0086  0.0081  0.0178  0.0217 </r>
        <r>  0.0009  0.0199  0.0515  0.0006  0.0276  0.0513  0.1323  0.0152  0.0692 </r>
       </set>
       <set comment="band 26">
        <r>  0.0163  0.0227  0.0052  0.0112  0.0245  0.0061  0.0025  0.0229  0.0005 </r>
        <r>  0.0045  0.0010  0.0093  0.0020  0.1252  0.0079  0.0284  0.0013  0.0076 </r>
       </set>
       <set comment="band 27">
        <r>  0.0181  0.0128  0.0088  0.0004  0.0011  0.0041  0.0404  0.0080  0.0095 </r>
        <r>  0.0476  0.0153  0.0143  0.0035  0.0030  0.0283  0.0145  0.0073  0.0067 </r>
       </set>
       <set comment="band 28">
        <r>  0.0113  0.0162  0.0051  0.0041  0.0457  0.0154  0.0177  0.0097  0.0020 </r>
        <r>  0.0041  0.0001  0.0024  0.0084  0.0178  0.0524  0.0006  0.0701  0.0105 </r>
       </set>
       <set comment="band 29">
        <r>  0.0074  0.0058  0.0006  0.0145  0.0084  0.0158  0.0120  0.0063  0.0094 </r>
        <r>  0.0019  0.0011  0.0035  0.0053  0.0259  0.0854  0.0025  0.0310  0.0194 </r>
       </set>
       <set comment="band 30">
        <r>  0.0102  0.0015  0.0001  0.0201  0.0070  0.0033  0.0059  0.0133  0.0247 </r>
        <r>  0.0059  0.0048  0.0021  0.0096  0.0326  0.0002  0.0103  0.0112  0.0175 </r>
       </set>
       <set comment="band 31">
        <r>  0.0022  0.0098  0.0638  0.0004  0.0027  0.0035  0.0238  0.0131  0.0140 </r>
        <r>  0.0002  0.0005  0.0009  0.0008  0.0534  0.0065  0.0452  0.0848  0.0012 </r>
       </set>
       <set comment="band 32">
        <r>  0.0180  0.0012  0.0045  0.0065  0.0204  0.0260  0.0101  0.0001  0.0147 </r>
        <r>  0.0033  0.0016  0.0012  0.0076  0.0043  0.0214  0.0086  0.0186  0.0201 </r>
       </set>
       <set comment="band 33">
        <r>  0.0190  0.0195  0.0103  0.0018  0.0088  0.0024  0.0104  0.0236  0.0012 </r>
        <r>  0.0011  0.0011  0.0035  0.0024  0.0014  0.0449  0.1073  0.0015  0.0501 </r>
       </set>
       <set comment="band 34">
        <r>  0.0100  0.0075  0.0003  0.0245  0.0146  0.0139  0.0101  0.0005  0.0085 </r>
        <r>  0.0051  0.0017  0.0155  0.0063  0.0209  0.0964  0.0296  0.0157  0.0018 </r>
       </set>
       <set comment="band 35">
        <r>  0.0270  0.0191  0.0165  0.0092  0.0079  0.0002  0.0076  0.0220  0.0133 </r>
        <r>  0.0023  0.0076  0.0066  0.0001  0.0053  0.1442  0.0657  0.0419  0.0041 </r>
       </set>
       <set comment="band 36">
        <r>  0.0022  0.0172  0.0043  0.0021  0.0341  0.0009  0.0481  0.0016  0.0001 </r>
        <r>  0.0090  0.0039  0.0150  0.0017  0.0288  0.0074  0.2716  0.0128  0.0036 </r>
       </set>
      </set>
      <set comment="kpoint 19">
       <set comment="band 1">
        <r>  0.0026  0.0032  0.0012  0.0075  0.0260  0.0041  0.0753  0.0083  0.0116 </r>
        <r>  0.5812  0.0000  0.0000  0.0000  0.0000  0.0000  0.0000  0.0000  0.0000 </r>
       </set>
       <set comment="band 2">
        <r>  0.0001  0.0001  0.0002  0.0000  0.0225  0.1443  0.1663  0.2022  0.3946 </r>
        <r>  0.0002  0.0049  0.0038  0.0001  0.0001  0.0002  0.0000  0.0004  0.0005 </r>
       </set>
       <set comment="band 3">
        <r>  0.0001  0.0002  0.0003  0.0001  0.2647  0.1646  0.0594  0.1949  0.2407 </r>
        <r>  0.0000  0.0033  0.0035  0.0043  0.0000  0.0000  0.0000  0.0003  0.0003 </r>
       </set>
       <set comment="band 4">
        <r>  0.0005  0.0000  0.0000  0.0000  0.4496  0.0451  0.1668  0.0891  0.1847 </r>
        <r>  0.0000  0.0006  0.0006  0.0016  0.0002  0.0001  0.0004  0.0002  0.0002 </r>
       </set>
       <set comment="band 5">
        <r>  0.0000  0.0000  0.0000  0.0000  0.0071  0.5521  0.0022  0.3801  0.0073 </r>
        <r>  0.0000  0.0001  0.0001  0.0001  0.0000  0.0001  0.0000  0.0000  0.0001 </r>
       </set>
       <set comment="band 6">
        <r>  0.0028  0.0008  0.0002  0.0022  0.1598  0.0311  0.4673  0.0678  0.0978 </r>
        <r>  0.0929  0.0003  0.0001  0.0015  0.0002  0.0000  0.0001  0.0000  0.0001 </r>
       </set>
       <set comment="band 7">
        <r>  0.2426  0.0008  0.0009  0.0005  0.0108  0.0000  0.0081  0.0006  0.0003 </r>
        <r>  0.0085  0.0492  0.0185  0.1458  0.0008  0.0001  0.0022  0.0003  0.0003 </r>
       </set>
       <set comment="band 8">
        <r>  0.0056  0.0121  0.0317  0.0261  0.0076  0.0080  0.0015  0.0025  0.0043 </r>
        <r>  0.0006  0.0818  0.1556  0.1008  0.0004  0.0003  0.0003  0.0000  0.0000 </r>
       </set>
       <set comment="band 9">
        <r>  0.0003  0.0361  0.0305  0.0075  0.0022  0.0019  0.0023  0.0057  0.0095 </r>
        <r>  0.0000  0.1815  0.1598  0.0130  0.0007  0.0002  0.0002  0.0001  0.0002 </r>
       </set>
       <set comment="band 10">
        <r>  0.2015  0.0089  0.0029  0.0016  0.0114  0.0013  0.0073  0.0002  0.0041 </r>
        <r>  0.0001  0.0721  0.0370  0.0682  0.0117  0.0003  0.0329  0.0003  0.0012 </r>
       </set>
       <set comment="band 11">
        <r>  0.0162  0.0274  0.0028  0.0541  0.0084  0.0004  0.0197  0.0010  0.0014 </r>
        <r>  0.0414  0.0036  0.0253  0.0386  0.0215  0.0001  0.0090  0.0001  0.0041 </r>
       </set>
       <set comment="band 12">
        <r>  0.0143  0.0488  0.0476  0.0111  0.0068  0.0087  0.0032  0.0014  0.0039 </r>
        <r>  0.0246  0.0628  0.0291  0.0044  0.0095  0.0311  0.0085  0.0010  0.0108 </r>
       </set>
       <set comment="band 13">
        <r>  0.0223  0.0280  0.0572  0.0353  0.0029  0.0003  0.0022  0.0037  0.0068 </r>
        <r>  0.0064  0.0082  0.0395  0.1034  0.0025  0.0060  0.0072  0.0342  0.0174 </r>
       </set>
       <set comment="band 14">
        <r>  0.0031  0.0530  0.0589  0.0091  0.0021  0.0069  0.0000  0.0091  0.0135 </r>
        <r>  0.0020  0.0695  0.0603  0.0922  0.0044  0.0155  0.0012  0.0137  0.0144 </r>
       </set>
       <set comment="band 15">
        <r>  0.0021  0.0056  0.0096  0.0677  0.0080  0.0134  0.0124  0.0228  0.0016 </r>
        <r>  0.0280  0.0079  0.0030  0.0112  0.0021  0.0539  0.0059  0.0224  0.0674 </r>
       </set>
       <set comment="band 16">
        <r>  0.0013  0.0392  0.0566  0.0176  0.0004  0.0047  0.0005  0.0008  0.0036 </r>
        <r>  0.0033  0.0075  0.0176  0.0350  0.0077  0.0928  0.0006  0.1158  0.0370 </r>
       </set>
       <set comment="band 17">
        <r>  0.0006  0.0247  0.0080  0.0369  0.0006  0.0119  0.0043  0.0031  0.0106 </r>
        <r>  0.0039  0.0253  0.0219  0.0200  0.0064  0.0275  0.0013  0.0720  0.0475 </r>
       </set>
       <set comment="band 18">
        <r>  0.0173  0.0074  0.0030  0.0094  0.0040  0.0063  0.0004  0.0110  0.0141 </r>
        <r>  0.0019  0.0048  0.0113  0.0075  0.0571  0.0213  0.0111  0.0522  0.0478 </r>
       </set>
       <set comment="band 19">
        <r>  0.0088  0.0358  0.0083  0.0411  0.0069  0.0067  0.0039  0.0053  0.0036 </r>
        <r>  0.0007  0.0075  0.0103  0.0028  0.0230  0.0095  0.0186  0.0159  0.0098 </r>
       </set>
       <set comment="band 20">
        <r>  0.0182  0.0051  0.0067  0.0084  0.0096  0.0186  0.0080  0.0403  0.0059 </r>
        <r>  0.0352  0.0143  0.0117  0.0003  0.0480  0.0014  0.0264  0.0042  0.0189 </r>
       </set>
       <set comment="band 21">
        <r>  0.0007  0.0149  0.0029  0.0219  0.0037  0.0450  0.0017  0.0046  0.0119 </r>
        <r>  0.0039  0.0338  0.0175  0.0010  0.0233  0.1070  0.0027  0.0219  0.0747 </r>
       </set>
       <set comment="band 22">
        <r>  0.0053  0.0009  0.0062  0.0313  0.0033  0.0063  0.0012  0.0049  0.0028 </r>
        <r>  0.0090  0.0072  0.0011  0.0041  0.0297  0.0011  0.0203  0.0175  0.0350 </r>
       </set>
       <set comment="band 23">
        <r>  0.0098  0.0050  0.0161  0.0310  0.0073  0.0072  0.0014  0.0155  0.0188 </r>
        <r>  0.0043  0.0015  0.0031  0.0018  0.0009  0.0046  0.0011  0.0058  0.0123 </r>
       </set>
       <set comment="band 24">
        <r>  0.0008  0.0134  0.0134  0.0016  0.0032  0.0047  0.0014  0.0167  0.0050 </r>
        <r>  0.0000  0.0003  0.0002  0.0000  0.1103  0.0031  0.0435  0.0014  0.0188 </r>
       </set>
       <set comment="band 25">
        <r>  0.0548  0.0044  0.0063  0.0020  0.0021  0.0064  0.0046  0.0207  0.0355 </r>
        <r>  0.0001  0.0016  0.0031  0.0023  0.0879  0.0082  0.2067  0.0144  0.0033 </r>
       </set>
       <set comment="band 26">
        <r>  0.0001  0.0074  0.0162  0.0177  0.0157  0.0028  0.0101  0.0050  0.0153 </r>
        <r>  0.0015  0.0126  0.0170  0.0061  0.0399  0.0066  0.1743  0.0152  0.0446 </r>
       </set>
       <set comment="band 27">
        <r>  0.0006  0.0249  0.0159  0.0015  0.0049  0.0001  0.0190  0.0095  0.0098 </r>
        <r>  0.0464  0.0050  0.0174  0.0164  0.0014  0.0055  0.0036  0.0084  0.0189 </r>
       </set>
       <set comment="band 28">
        <r>  0.0070  0.0135  0.0156  0.0029  0.0057  0.0292  0.0047  0.0192  0.0422 </r>
        <r>  0.0095  0.0103  0.0097  0.0009  0.0924  0.0047  0.0418  0.0167  0.0031 </r>
       </set>
       <set comment="band 29">
        <r>  0.0176  0.0247  0.0085  0.0040  0.0604  0.0070  0.0287  0.0208  0.0177 </r>
        <r>  0.0000  0.0049  0.0076  0.0029  0.0027  0.0020  0.0164  0.0056  0.0117 </r>
       </set>
       <set comment="band 30">
        <r>  0.0043  0.0127  0.0167  0.0122  0.0164  0.0019  0.0487  0.0006  0.0011 </r>
        <r>  0.0002  0.0004  0.0013  0.0018  0.0131  0.0926  0.0047  0.0870  0.0125 </r>
       </set>
       <set comment="band 31">
        <r>  0.0044  0.0219  0.0149  0.0123  0.0142  0.0008  0.0347  0.0017  0.0000 </r>
        <r>  0.0033  0.0049  0.0069  0.0020  0.0073  0.0809  0.0009  0.0847  0.0373 </r>
       </set>
       <set comment="band 32">
        <r>  0.0582  0.0037  0.0044  0.0013  0.0075  0.0077  0.0044  0.0019  0.0106 </r>
        <r>  0.0024  0.0021  0.0008  0.0008  0.0410  0.0283  0.0223  0.0033  0.0436 </r>
       </set>
       <set comment="band 33">
        <r>  0.0115  0.0049  0.0213  0.0249  0.0225  0.0057  0.0091  0.0093  0.0124 </r>
        <r>  0.0000  0.0077  0.0002  0.0140  0.0743  0.0423  0.0199  0.0049  0.0092 </r>
       </set>
       <set comment="band 34">
        <r>  0.0039  0.0031  0.0097  0.0090  0.0090  0.0130  0.0039  0.0108  0.0029 </r>
        <r>  0.0000  0.0028  0.0038  0.0030  0.0572  0.0040  0.1707  0.0005  0.0031 </r>
       </set>
       <set comment="band 35">
        <r>  0.0108  0.0001  0.0007  0.0038  0.0230  0.0214  0.0125  0.0172  0.0080 </r>
        <r>  0.0005  0.0186  0.0267  0.0097  0.0418  0.0027  0.1618  0.0050  0.0208 </r>
       </set>
       <set comment="band 36">
        <r>  0.0004  0.0077  0.0096  0.0158  0.0187  0.0003  0.0290  0.0031  0.0020 </r>
        <r>  0.0441  0.0064  0.0162  0.0112  0.1449  0.0053  0.0594  0.0009  0.0351 </r>
       </set>
      </set>
      <set comment="kpoint 20">
       <set comment="band 1">
        <r>  0.0012  0.0049  0.0011  0.0060  0.0218  0.0041  0.0574  0.0083  0.0381 </r>
        <r>  0.5804  0.0000  0.0000  0.0000  0.0000  0.0000  0.0000  0.0000  0.0000 </r>
       </set>
       <set comment="band 2">
        <r>  0.0001  0.0002  0.0000  0.0001  0.0476  0.0140  0.4592  0.0254  0.3802 </r>
        <r>  0.0001  0.0043  0.0007  0.0041  0.0003  0.0001  0.0000  0.0001  0.0006 </r>
       </set>
       <set comment="band 3">
        <r>  0.0000  0.0001  0.0004  0.0000  0.1163  0.2684  0.0001  0.4888  0.0529 </r>
        <r>  0.0000  0.0010  0.0085  0.0017  0.0000  0.0002  0.0001  0.0004  0.0000 </r>
       </set>
       <set comment="band 4">
        <r>  0.0001  0.0000  0.0000  0.0000  0.5552  0.0494  0.0702  0.0659  0.2014 </r>
        <r>  0.0000  0.0001  0.0000  0.0002  0.0002  0.0000  0.0004  0.0001  0.0003 </r>
       </set>
       <set comment="band 5">
        <r>  0.0002  0.0000  0.0000  0.0000  0.0535  0.5792  0.0072  0.2987  0.0070 </r>
        <r>  0.0000  0.0003  0.0003  0.0004  0.0000  0.0001  0.0000  0.0001  0.0000 </r>
       </set>
       <set comment="band 6">
        <r>  0.0011  0.0014  0.0003  0.0016  0.1458  0.0253  0.3425  0.0503  0.2637 </r>
        <r>  0.1005  0.0002  0.0001  0.0002  0.0000  0.0000  0.0001  0.0000  0.0000 </r>
       </set>
       <set comment="band 7">
        <r>  0.2545  0.0007  0.0000  0.0013  0.0029  0.0012  0.0003  0.0007  0.0013 </r>
        <r>  0.0023  0.0924  0.0148  0.1079  0.0009  0.0001  0.0015  0.0003  0.0015 </r>
       </set>
       <set comment="band 8">
        <r>  0.0006  0.0397  0.0013  0.0285  0.0056  0.0013  0.0123  0.0011  0.0051 </r>
        <r>  0.0002  0.1716  0.0000  0.1440  0.0005  0.0001  0.0003  0.0000  0.0001 </r>
       </set>
       <set comment="band 9">
        <r>  0.0018  0.0044  0.0591  0.0088  0.0030  0.0085  0.0002  0.0121  0.0006 </r>
        <r>  0.0003  0.0120  0.3281  0.0160  0.0003  0.0004  0.0006  0.0004  0.0001 </r>
       </set>
       <set comment="band 10">
        <r>  0.1614  0.0109  0.0033  0.0217  0.0010  0.0016  0.0176  0.0017  0.0006 </r>
        <r>  0.0188  0.0365  0.0657  0.0613  0.0003  0.0004  0.0367  0.0009  0.0014 </r>
       </set>
       <set comment="band 11">
        <r>  0.0776  0.0094  0.0000  0.0186  0.0055  0.0022  0.0126  0.0028  0.0037 </r>
        <r>  0.0031  0.1225  0.0039  0.0867  0.0289  0.0013  0.0007  0.0012  0.0108 </r>
       </set>
       <set comment="band 12">
        <r>  0.0088  0.0286  0.0791  0.0341  0.0018  0.0030  0.0001  0.0051  0.0101 </r>
        <r>  0.0440  0.0145  0.0369  0.0174  0.0008  0.0242  0.0004  0.0168  0.0045 </r>
       </set>
       <set comment="band 13">
        <r>  0.0031  0.0575  0.0111  0.0340  0.0188  0.0055  0.0003  0.0047  0.0039 </r>
        <r>  0.0123  0.0091  0.0003  0.0168  0.0177  0.0086  0.0210  0.0134  0.0243 </r>
       </set>
       <set comment="band 14">
        <r>  0.0011  0.0332  0.0839  0.0271  0.0019  0.0033  0.0062  0.0059  0.0145 </r>
        <r>  0.0102  0.0595  0.0641  0.0725  0.0026  0.0157  0.0003  0.0168  0.0103 </r>
       </set>
       <set comment="band 15">
        <r>  0.0027  0.0141  0.0324  0.0072  0.0056  0.0262  0.0001  0.0205  0.0026 </r>
        <r>  0.0087  0.0165  0.0060  0.0177  0.0011  0.0645  0.0089  0.0777  0.0086 </r>
       </set>
       <set comment="band 16">
        <r>  0.0006  0.0729  0.0002  0.0745  0.0025  0.0054  0.0128  0.0075  0.0012 </r>
        <r>  0.0031  0.0356  0.0000  0.0572  0.0120  0.0265  0.0000  0.0377  0.0954 </r>
       </set>
       <set comment="band 17">
        <r>  0.0000  0.0172  0.0334  0.0248  0.0037  0.0046  0.0003  0.0023  0.0011 </r>
        <r>  0.0146  0.0210  0.0325  0.0148  0.0581  0.0629  0.0028  0.0328  0.0086 </r>
       </set>
       <set comment="band 18">
        <r>  0.0088  0.0038  0.0000  0.0061  0.0087  0.0023  0.0081  0.0035  0.0066 </r>
        <r>  0.0014  0.0060  0.0003  0.0063  0.0406  0.0155  0.0748  0.0163  0.0368 </r>
       </set>
       <set comment="band 19">
        <r>  0.0276  0.0183  0.0006  0.0315  0.0018  0.0103  0.0004  0.0054  0.0131 </r>
        <r>  0.0082  0.0000  0.0074  0.0000  0.0055  0.0224  0.0011  0.0122  0.0414 </r>
       </set>
       <set comment="band 20">
        <r>  0.0049  0.0244  0.0199  0.0271  0.0005  0.0026  0.0031  0.0045  0.0005 </r>
        <r>  0.0031  0.0656  0.0431  0.0329  0.1468  0.0433  0.0007  0.0325  0.0344 </r>
       </set>
       <set comment="band 21">
        <r>  0.0131  0.0007  0.0107  0.0010  0.0127  0.0147  0.0039  0.0212  0.0159 </r>
        <r>  0.0005  0.0023  0.0001  0.0028  0.0376  0.0081  0.0037  0.0063  0.0197 </r>
       </set>
       <set comment="band 22">
        <r>  0.0176  0.0053  0.0002  0.0028  0.0004  0.0279  0.0016  0.0255  0.0008 </r>
        <r>  0.0007  0.0069  0.0004  0.0137  0.0259  0.0730  0.0141  0.1413  0.0983 </r>
       </set>
       <set comment="band 23">
        <r>  0.0072  0.0306  0.0063  0.0353  0.0034  0.0160  0.0021  0.0121  0.0197 </r>
        <r>  0.0003  0.0003  0.0019  0.0006  0.0026  0.0011  0.0021  0.0006  0.0086 </r>
       </set>
       <set comment="band 24">
        <r>  0.0009  0.0011  0.0093  0.0019  0.0331  0.0002  0.0000  0.0002  0.0412 </r>
        <r>  0.0373  0.0008  0.0269  0.0015  0.0379  0.0090  0.2001  0.0045  0.0086 </r>
       </set>
       <set comment="band 25">
        <r>  0.0030  0.0262  0.0123  0.0162  0.0408  0.0013  0.0074  0.0007  0.0056 </r>
        <r>  0.0075  0.0016  0.0042  0.0008  0.0801  0.0018  0.0046  0.0032  0.0296 </r>
       </set>
       <set comment="band 26">
        <r>  0.0006  0.0207  0.0013  0.0105  0.0147  0.0189  0.0299  0.0323  0.0254 </r>
        <r>  0.0171  0.0005  0.0088  0.0003  0.0449  0.0135  0.1583  0.0068  0.0225 </r>
       </set>
       <set comment="band 27">
        <r>  0.0069  0.0105  0.0305  0.0117  0.0003  0.0049  0.0001  0.0034  0.0006 </r>
        <r>  0.0348  0.0001  0.0081  0.0002  0.0006  0.0060  0.0286  0.0121  0.0001 </r>
       </set>
       <set comment="band 28">
        <r>  0.0080  0.0366  0.0001  0.0413  0.0089  0.0170  0.0039  0.0329  0.0169 </r>
        <r>  0.0039  0.0023  0.0209  0.0015  0.0153  0.0088  0.0003  0.0088  0.1183 </r>
       </set>
       <set comment="band 29">
        <r>  0.0008  0.0015  0.0005  0.0008  0.0014  0.0195  0.0003  0.0100  0.0115 </r>
        <r>  0.0000  0.0003  0.0015  0.0006  0.0079  0.1450  0.0000  0.0726  0.0028 </r>
       </set>
       <set comment="band 30">
        <r>  0.0634  0.0054  0.0400  0.0039  0.0001  0.0001  0.0731  0.0003  0.0001 </r>
        <r>  0.0008  0.0023  0.0017  0.0020  0.0011  0.0069  0.0791  0.0108  0.0055 </r>
       </set>
       <set comment="band 31">
        <r>  0.0002  0.0013  0.0030  0.0018  0.0581  0.0126  0.0005  0.0108  0.0407 </r>
        <r>  0.0016  0.0039  0.0073  0.0035  0.0010  0.0027  0.0000  0.0032  0.0074 </r>
       </set>
       <set comment="band 32">
        <r>  0.0099  0.0079  0.0165  0.0094  0.0018  0.0290  0.0178  0.0219  0.0133 </r>
        <r>  0.0002  0.0038  0.0000  0.0051  0.0008  0.0409  0.0002  0.0575  0.0034 </r>
       </set>
       <set comment="band 33">
        <r>  0.0498  0.0011  0.0371  0.0007  0.0016  0.0111  0.0096  0.0059  0.0002 </r>
        <r>  0.0010  0.0012  0.0013  0.0006  0.0054  0.0122  0.0075  0.0198  0.0010 </r>
       </set>
       <set comment="band 34">
        <r>  0.0106  0.0149  0.0026  0.0077  0.0126  0.0054  0.0077  0.0040  0.0053 </r>
        <r>  0.0053  0.0067  0.0119  0.0044  0.0361  0.0481  0.0426  0.0249  0.0050 </r>
       </set>
       <set comment="band 35">
        <r>  0.0048  0.0100  0.0020  0.0133  0.0151  0.0043  0.0542  0.0085  0.0022 </r>
        <r>  0.0062  0.0005  0.0275  0.0011  0.0061  0.0104  0.4251  0.0055  0.0009 </r>
       </set>
       <set comment="band 36">
        <r>  0.0060  0.0026  0.0115  0.0089  0.0302  0.0003  0.0079  0.0004  0.0106 </r>
        <r>  0.0014  0.0127  0.0026  0.0211  0.0601  0.0044  0.0013  0.0079  0.0068 </r>
       </set>
      </set>
     </set>
    </set>
   </array>
  </projected>
 </calculation>
 <structure name="finalpos" >
  <crystal>
   <varray name="basis" >
    <v>       4.01975093       0.00000000       2.32080404 </v>
    <v>       1.33991663       3.78985854       2.32080404 </v>
    <v>       0.00000000       0.00000000       4.64161015 </v>
   </varray>
   <i name="volume">     70.71162285 </i>
   <varray name="rec_basis" >
    <v>       0.24877163      -0.08795401       0.00000000 </v>
    <v>       0.00000000       0.26386209       0.00000000 </v>
    <v>      -0.12438576      -0.08795400       0.21544248 </v>
   </varray>
  </crystal>
  <varray name="positions" >
   <v>       0.00000000       0.00000000       0.00000000 </v>
   <v>       0.25000000       0.25000000       0.25000000 </v>
  </varray>
 </structure>
</modeling>
