 vasp.6.4.2 20Jul23 (build Mar 15 2024 16:31:38) complex                        
  
 executed on             LinuxIFC date 2025.03.31  20:05:28
 running  120 mpi-ranks, on    3 nodes
 distrk:  each k-point on  120 cores,    1 groups
 distr:  one band on NCORE=  20 cores,    6 groups


--------------------------------------------------------------------------------------------------------


 INCAR:
   ALGO = Normal
   CSHIFT = 1e-05
   EDIFF = 1e-05
   ENAUG = 1360
   ENCUT = 680
   GGA = Pe
   HFSCREEN = 0.2
   ISMEAR = -5
   ISPIN = 1
   LAECHG = True
   LASPH = True
   LCHARG = False
   LDAU = False
   LELF = False
   LHFCALC = True
   LMAXMIX = 6
   LMIXTAU = True
   LOPTICS = True
   LORBIT = 11
   LREAL = False
   LVTOT = True
   LWAVE = False
   NBANDS = 252
   NCORE = 20
   NEDOS = 1172
   NELM = 200
   NELMIN = 5
   NSW = 0
   PREC = Accurate
   PRECFOCK = Accurate
   SIGMA = 0.05

 POTCAR:    PAW_PBE Tl_d 06Sep2000                
 POTCAR:    PAW_PBE Cu 22Jun2005                  
 POTCAR:    PAW_PBE Se 06Sep2000                  
 WARNING: For LVTOT=.TRUE., VASP.5.x writes the TOTAL local potential to the
     file LOCPOT. If you want only the Hartree contributions, use LVHAR=.TRUE.
     instead. 

 POTCAR:    PAW_PBE Tl_d 06Sep2000                
   VRHFIN =Tl:                                                                                      
   LEXCH  = PE                                                                                      
   EATOM  =  1391.8071 eV,  102.2949 Ry                                                             
                                                                                                    
   TITEL  = PAW_PBE Tl_d 06Sep2000                                                                  
   LULTRA =        F    use ultrasoft PP ?                                                          
   IUNSCR =        1    unscreen: 0-lin 1-nonlin 2-no                                               
   RPACOR =    2.200    partial core radius                                                         
   POMASS =  204.380; ZVAL   =   13.000    mass and valenz                                          
   RCORE  =    2.500    outmost cutoff radius                                                       
   RWIGS  =    3.260; RWIGS  =    1.725    wigner-seitz radius (au A)                               
   ENMAX  =  237.053; ENMIN  =  177.789 eV                                                          
   ICORE  =        3    local potential                                                             
   LCOR   =        T    correct aug charges                                                         
   LPAW   =        T    paw PP                                                                      
   EAUG   =  395.511                                                                                
   DEXC   =    0.000                                                                                
   RMAX   =    2.553    core radius for proj-oper                                                   
   RAUG   =    1.300    factor for augmentation sphere                                              
   RDEP   =    2.630    radius for radial grids                                                     
   RDEPT  =    2.133    core radius for aug-charge                                                  
                                                                                                    
   Atomic configuration                                                                             
   16 entries                                                                                       
     n  l   j            E        occ.                                                              
     1  0  0.50    -85594.3226   2.0000                                                             
     2  0  0.50    -15237.2711   2.0000                                                             
     2  1  1.50    -13100.9674   6.0000                                                             
     3  0  0.50     -3637.0868   2.0000                                                             
     3  1  1.50     -3022.5362   6.0000                                                             
     3  2  2.50     -2387.1749  10.0000                                                             
     4  0  0.50      -811.8534   2.0000                                                             
     4  1  1.50      -610.4868   6.0000                                                             
     4  2  2.50      -374.8241  10.0000                                                             
     4  3  3.50      -114.0438  14.0000                                                             
     5  0  0.50      -130.9408   2.0000                                                             
     5  1  1.50       -76.0548   6.0000                                                             
     5  2  2.50       -15.4864  10.0000                                                             
     6  0  0.50        -9.5437   2.0000                                                             
     6  1  1.50        -2.3700   1.0000                                                             
     5  3  2.50        -2.7212   0.0000                                                             
   Description                                                                                      
     l       E           TYP  RCUT    TYP  RCUT                                                     
     2    -15.4863948     23  2.500                                                                 
     2    -16.8469774     23  2.500                                                                 
     0     -9.5436777     23  2.500                                                                 
     0     13.6058260     23  2.500                                                                 
     1     -2.3700287     23  2.500                                                                 
     1     13.6058260     23  2.500                                                                 
     3     -1.3605826      7  2.500                                                                 
  local pseudopotential read in
  partial core-charges read in
  partial kinetic energy density read in
  atomic valenz-charges read in
  non local Contribution for L=           2  read in
    real space projection operators read in
  non local Contribution for L=           2  read in
    real space projection operators read in
  non local Contribution for L=           0  read in
    real space projection operators read in
  non local Contribution for L=           0  read in
    real space projection operators read in
  non local Contribution for L=           1  read in
    real space projection operators read in
  non local Contribution for L=           1  read in
    real space projection operators read in
    PAW grid and wavefunctions read in
 
   number of l-projection  operators is LMAX  =           6
   number of lm-projection operators is LMMAX =          18
 
 POTCAR:    PAW_PBE Cu 22Jun2005                  
   VRHFIN =Cu: d10 p1                                                                               
   LEXCH  = PE                                                                                      
   EATOM  =  1390.9808 eV,  102.2342 Ry                                                             
                                                                                                    
   TITEL  = PAW_PBE Cu 22Jun2005                                                                    
   LULTRA =        F    use ultrasoft PP ?                                                          
   IUNSCR =        1    unscreen: 0-lin 1-nonlin 2-no                                               
   RPACOR =    2.000    partial core radius                                                         
   POMASS =   63.546; ZVAL   =   11.000    mass and valenz                                          
   RCORE  =    2.300    outmost cutoff radius                                                       
   RWIGS  =    2.200; RWIGS  =    1.164    wigner-seitz radius (au A)                               
   ENMAX  =  295.446; ENMIN  =  221.585 eV                                                          
   ICORE  =        3    local potential                                                             
   LCOR   =        T    correct aug charges                                                         
   LPAW   =        T    paw PP                                                                      
   EAUG   =  586.980                                                                                
   DEXC   =    0.000                                                                                
   RMAX   =    2.344    core radius for proj-oper                                                   
   RAUG   =    1.300    factor for augmentation sphere                                              
   RDEP   =    2.302    radius for radial grids                                                     
   RDEPT  =    1.771    core radius for aug-charge                                                  
                                                                                                    
   Atomic configuration                                                                             
    9 entries                                                                                       
     n  l   j            E        occ.                                                              
     1  0  0.50     -8850.2468   2.0000                                                             
     2  0  0.50     -1062.3498   2.0000                                                             
     2  1  1.50      -916.8226   6.0000                                                             
     3  0  0.50      -114.6929   2.0000                                                             
     3  1  1.50       -72.1325   6.0000                                                             
     3  2  2.50        -5.0394  10.0000                                                             
     4  0  0.50        -4.6097   1.0000                                                             
     4  1  0.50        -4.0817   0.0000                                                             
     4  3  2.50        -1.3606   0.0000                                                             
   Description                                                                                      
     l       E           TYP  RCUT    TYP  RCUT                                                     
     2     -5.0393973     23  2.200                                                                 
     2     10.8846608     23  2.200                                                                 
     0     -4.6097109     23  2.200                                                                 
     0      8.2520465     23  2.200                                                                 
     1     -2.7211652     23  2.200                                                                 
     1     21.7055443     23  2.200                                                                 
     3      2.7211652     23  2.300                                                                 
  local pseudopotential read in
  partial core-charges read in
  partial kinetic energy density read in
  atomic valenz-charges read in
  non local Contribution for L=           2  read in
    real space projection operators read in
  non local Contribution for L=           2  read in
    real space projection operators read in
  non local Contribution for L=           0  read in
    real space projection operators read in
  non local Contribution for L=           0  read in
    real space projection operators read in
  non local Contribution for L=           1  read in
    real space projection operators read in
  non local Contribution for L=           1  read in
    real space projection operators read in
    PAW grid and wavefunctions read in
 
   number of l-projection  operators is LMAX  =           6
   number of lm-projection operators is LMMAX =          18
 
 POTCAR:    PAW_PBE Se 06Sep2000                  
   VRHFIN =Se: s2p4                                                                                 
   LEXCH  = PE                                                                                      
   EATOM  =   257.1286 eV,   18.8984 Ry                                                             
                                                                                                    
   TITEL  = PAW_PBE Se 06Sep2000                                                                    
   LULTRA =        F    use ultrasoft PP ?                                                          
   IUNSCR =        1    unscreen: 0-lin 1-nonlin 2-no                                               
   RPACOR =    1.900    partial core radius                                                         
   POMASS =   78.960; ZVAL   =    6.000    mass and valenz                                          
   RCORE  =    2.100    outmost cutoff radius                                                       
   RWIGS  =    2.200; RWIGS  =    1.164    wigner-seitz radius (au A)                               
   ENMAX  =  211.555; ENMIN  =  158.666 eV                                                          
   ICORE  =        3    local potential                                                             
   LCOR   =        T    correct aug charges                                                         
   LPAW   =        T    paw PP                                                                      
   EAUG   =  446.842                                                                                
   DEXC   =    0.000                                                                                
   RMAX   =    2.147    core radius for proj-oper                                                   
   RAUG   =    1.300    factor for augmentation sphere                                              
   RDEP   =    2.177    radius for radial grids                                                     
   RDEPT  =    1.928    core radius for aug-charge                                                  
                                                                                                    
   Atomic configuration                                                                             
   10 entries                                                                                       
     n  l   j            E        occ.                                                              
     1  0  0.50    -12503.4787   2.0000                                                             
     2  0  0.50     -1606.9547   2.0000                                                             
     2  1  1.50     -1413.3140   6.0000                                                             
     3  0  0.50      -213.4885   2.0000                                                             
     3  1  1.50      -152.9538   6.0000                                                             
     3  2  2.50       -53.1221  10.0000                                                             
     4  0  0.50       -17.2865   2.0000                                                             
     4  1  0.50        -6.5110   4.0000                                                             
     4  2  2.50        -6.8029   0.0000                                                             
     4  3  2.50        -6.8029   0.0000                                                             
   Description                                                                                      
     l       E           TYP  RCUT    TYP  RCUT                                                     
     0    -17.2865377     23  2.100                                                                 
     0    -15.3094411     23  2.100                                                                 
     1     -6.5110275     23  2.100                                                                 
     1     -0.0695192     23  2.100                                                                 
     2     -6.8029130     23  2.100                                                                 
     3     -1.3605826      7  2.100                                                                 
  local pseudopotential read in
  partial core-charges read in
  partial kinetic energy density read in
  atomic valenz-charges read in
  non local Contribution for L=           0  read in
    real space projection operators read in
  non local Contribution for L=           0  read in
    real space projection operators read in
  non local Contribution for L=           1  read in
    real space projection operators read in
  non local Contribution for L=           1  read in
    real space projection operators read in
  non local Contribution for L=           2  read in
    real space projection operators read in
    PAW grid and wavefunctions read in
 
   number of l-projection  operators is LMAX  =           5
   number of lm-projection operators is LMMAX =          13
 
 -----------------------------------------------------------------------------
|                                                                             |
|               ----> ADVICE to this user running VASP <----                  |
|                                                                             |
|     You have a (more or less) 'large supercell' and for larger cells it     |
|     might be more efficient to use real-space projection operators.         |
|     Therefore, try LREAL= Auto in the INCAR file.                           |
|     Mind: For very accurate calculation, you might also keep the            |
|     reciprocal projection scheme (i.e. LREAL=.FALSE.).                      |
|                                                                             |
 -----------------------------------------------------------------------------

  PAW_PBE Tl_d 06Sep2000                :
 energy of atom  1       EATOM=-1391.8071
 kinetic energy error for atom=    0.0012 (will be added to EATOM!!)
  PAW_PBE Cu 22Jun2005                  :
 energy of atom  2       EATOM=-1390.9808
 kinetic energy error for atom=    0.0018 (will be added to EATOM!!)
  PAW_PBE Se 06Sep2000                  :
 energy of atom  3       EATOM= -257.1286
 kinetic energy error for atom=    0.0004 (will be added to EATOM!!)
 
 
 POSCAR: Tl4 Cu20 Se12
  positions in direct lattice
  No initial velocities read in
 exchange correlation table for  LEXCH =        8
   RHO(1)=    0.500       N(1)  =     2000
   RHO(2)=  100.500       N(2)  =     4000
 


--------------------------------------------------------------------------------------------------------


 ion  position               nearest neighbor table
   1  0.397  0.603  0.500-  27 3.29  28 3.29  27 3.29  28 3.29  31 3.33  36 3.33  31 3.33  36 3.33
                             2 3.76
   2  0.603  0.397  0.500-  27 3.29  28 3.29  27 3.29  28 3.29  32 3.33  35 3.33  32 3.33  35 3.33
                             1 3.76
   3  0.103  0.103  0.000-  25 3.29  26 3.29  25 3.29  26 3.29  29 3.33  33 3.33  29 3.33  33 3.33
                             4 3.76
   4  0.897  0.897  0.000-  25 3.29  26 3.29  25 3.29  26 3.29  30 3.33  34 3.33  30 3.33  34 3.33
                             3 3.76
   5  0.311  0.311  0.500-  27 2.41  27 2.41  33 2.54  29 2.54  15 2.66  15 2.66  11 2.66  11 2.66

   6  0.689  0.689  0.500-  28 2.41  28 2.41  34 2.54  30 2.54  16 2.66  16 2.66  12 2.66  12 2.66

   7  0.189  0.811  0.000-  25 2.41  25 2.41  36 2.54  31 2.54  14 2.66   9 2.66  14 2.66   9 2.66

   8  0.811  0.189  0.000-  26 2.41  26 2.41  35 2.54  32 2.54  10 2.66  13 2.66  13 2.66  10 2.66

   9  0.085  0.708  0.500-  25 2.40  17 2.55  34 2.57  31 2.57  31 2.57  24 2.65  24 2.65   7 2.66
                             7 2.66
  10  0.915  0.292  0.500-  26 2.40  18 2.55  33 2.57  32 2.57  32 2.57  23 2.65  23 2.65   8 2.66
                             8 2.66
  11  0.415  0.208  0.000-  27 2.40  19 2.55  35 2.57  29 2.57  29 2.57  21 2.65  21 2.65   5 2.66
                             5 2.66
  12  0.585  0.792  0.000-  28 2.40  20 2.55  36 2.57  30 2.57  30 2.57  22 2.65  22 2.65   6 2.66
                             6 2.66
  13  0.708  0.085  0.500-  26 2.40  21 2.55  30 2.57  35 2.57  35 2.57  20 2.65  20 2.65   8 2.66
                             8 2.66
  14  0.292  0.915  0.500-  25 2.40  22 2.55  29 2.57  36 2.57  36 2.57  19 2.65  19 2.65   7 2.66
                             7 2.66
  15  0.208  0.415  0.000-  27 2.40  23 2.55  31 2.57  33 2.57  33 2.57  17 2.65  17 2.65   5 2.66
                             5 2.66
  16  0.792  0.585  0.000-  28 2.40  24 2.55  32 2.57  34 2.57  34 2.57  18 2.65  18 2.65   6 2.66
                             6 2.66
  17  0.099  0.511  0.500-  33 2.50  31 2.54  31 2.54   9 2.55  18 2.57  24 2.62  24 2.62  23 2.62
                            23 2.62  15 2.65  15 2.65
  18  0.901  0.489  0.500-  34 2.50  32 2.54  32 2.54  10 2.55  17 2.57  24 2.62  24 2.62  23 2.62
                            23 2.62  16 2.65  16 2.65
  19  0.401  0.011  0.000-  36 2.50  29 2.54  29 2.54  11 2.55  20 2.57  21 2.62  21 2.62  22 2.62
                            22 2.62  14 2.65  14 2.65
  20  0.599  0.989  0.000-  35 2.50  30 2.54  30 2.54  12 2.55  19 2.57  22 2.62  22 2.62  21 2.62
                            21 2.62  13 2.65  13 2.65
  21  0.511  0.099  0.500-  29 2.50  35 2.54  35 2.54  13 2.55  22 2.57  19 2.62  19 2.62  20 2.62
                            20 2.62  11 2.65  11 2.65
  22  0.489  0.901  0.500-  30 2.50  36 2.54  36 2.54  14 2.55  21 2.57  20 2.62  20 2.62  19 2.62
                            19 2.62  12 2.65  12 2.65
  23  0.011  0.401  0.000-  32 2.50  33 2.54  33 2.54  15 2.55  24 2.57  17 2.62  17 2.62  18 2.62
                            18 2.62  10 2.65  10 2.65
  24  0.989  0.599  0.000-  31 2.50  34 2.54  34 2.54  16 2.55  23 2.57  18 2.62  18 2.62  17 2.62
                            17 2.62   9 2.65   9 2.65
  25  0.106  0.894  0.500-   9 2.40  14 2.40   7 2.41   7 2.41   3 3.29   4 3.29   4 3.29   3 3.29

  26  0.894  0.106  0.500-  10 2.40  13 2.40   8 2.41   8 2.41   3 3.29   4 3.29   4 3.29   3 3.29

  27  0.394  0.394  0.000-  11 2.40  15 2.40   5 2.41   5 2.41   2 3.29   1 3.29   1 3.29   2 3.29

  28  0.606  0.606  0.000-  12 2.40  16 2.40   6 2.41   6 2.41   1 3.29   2 3.29   2 3.29   1 3.29

  29  0.317  0.113  0.500-  21 2.50   5 2.54  19 2.54  19 2.54  14 2.57  11 2.57  11 2.57   3 3.33
                             3 3.33
  30  0.683  0.887  0.500-  22 2.50   6 2.54  20 2.54  20 2.54  13 2.57  12 2.57  12 2.57   4 3.33
                             4 3.33
  31  0.183  0.613  0.000-  24 2.50   7 2.54  17 2.54  17 2.54  15 2.57   9 2.57   9 2.57   1 3.33
                             1 3.33
  32  0.817  0.387  0.000-  23 2.50   8 2.54  18 2.54  18 2.54  16 2.57  10 2.57  10 2.57   2 3.33
                             2 3.33
  33  0.113  0.317  0.500-  17 2.50   5 2.54  23 2.54  23 2.54  10 2.57  15 2.57  15 2.57   3 3.33
                             3 3.33
  34  0.887  0.683  0.500-  18 2.50   6 2.54  24 2.54  24 2.54   9 2.57  16 2.57  16 2.57   4 3.33
                             4 3.33
  35  0.613  0.183  0.000-  20 2.50   8 2.54  21 2.54  21 2.54  11 2.57  13 2.57  13 2.57   2 3.33
                             2 3.33
  36  0.387  0.817  0.000-  19 2.50   7 2.54  22 2.54  22 2.54  12 2.57  14 2.57  14 2.57   1 3.33
                             1 3.33
 
  LATTYP: Found a simple tetragonal cell.
 ALAT       =    12.8608205449
 C/A-ratio  =     0.2925081495
  
  Lattice vectors:
  
 A1 = (  12.8608205449,   0.0000000000,   0.0000000000)
 A2 = (  -0.0000000000,  12.8608205449,   0.0000000000)
 A3 = (   0.0000000000,   0.0000000000,   3.7618948191)


Analysis of symmetry for initial positions (statically):
=====================================================================
 Subroutine PRICEL returns:
 Original cell was already a primitive cell.
 

 Routine SETGRP: Setting up the symmetry group for a 
 simple tetragonal supercell.


 Subroutine GETGRP returns: Found 16 space group operations
 (whereof  8 operations were pure point group operations)
 out of a pool of 16 trial point group operations.


The static configuration has the point symmetry D_2h.
 The point group associated with its full space group is D_4h.


Analysis of symmetry for dynamics (positions and initial velocities):
=====================================================================
 Subroutine PRICEL returns:
 Original cell was already a primitive cell.
 

 Routine SETGRP: Setting up the symmetry group for a 
 simple tetragonal supercell.


 Subroutine GETGRP returns: Found 16 space group operations
 (whereof  8 operations were pure point group operations)
 out of a pool of 16 trial point group operations.


The dynamic configuration has the point symmetry D_2h.
 The point group associated with its full space group is D_4h.


 Subroutine INISYM returns: Found 16 space group operations
 (whereof  8 operations are pure point group operations),
 and found     1 'primitive' translations


----------------------------------------------------------------------------------------

                                     Primitive cell                                     

  volume of cell :     622.2201

  direct lattice vectors                    reciprocal lattice vectors
    12.860820545  0.000000000  0.000000000     0.077755536  0.000000000  0.000000000
    -0.000000000 12.860820545  0.000000000     0.000000000  0.077755536  0.000000000
     0.000000000  0.000000000  3.761894819    -0.000000000 -0.000000000  0.265823487

  length of vectors
    12.860820545 12.860820545  3.761894819     0.077755536  0.077755536  0.265823487

  position of ions in fractional coordinates (direct lattice)
     0.396561698  0.603438302  0.500000000
     0.603438302  0.396561698  0.500000000
     0.103438302  0.103438302  0.000000000
     0.896561698  0.896561698  0.000000000
     0.310531130  0.310531130  0.500000000
     0.689468870  0.689468870  0.500000000
     0.189468870  0.810531130  0.000000000
     0.810531130  0.189468870  0.000000000
     0.085154878  0.707981745  0.500000000
     0.914845122  0.292018255  0.500000000
     0.414845122  0.207981745  0.000000000
     0.585154878  0.792018255  0.000000000
     0.707981745  0.085154878  0.500000000
     0.292018255  0.914845122  0.500000000
     0.207981745  0.414845122  0.000000000
     0.792018255  0.585154878  0.000000000
     0.099435746  0.510554399  0.500000000
     0.900564254  0.489445601  0.500000000
     0.400564254  0.010554399  0.000000000
     0.599435746  0.989445601  0.000000000
     0.510554399  0.099435746  0.500000000
     0.489445601  0.900564254  0.500000000
     0.010554399  0.400564254  0.000000000
     0.989445601  0.599435746  0.000000000
     0.106380954  0.893619046  0.500000000
     0.893619046  0.106380954  0.500000000
     0.393619046  0.393619046  0.000000000
     0.606380954  0.606380954  0.000000000
     0.316542232  0.113283092  0.500000000
     0.683457768  0.886716908  0.500000000
     0.183457768  0.613283092  0.000000000
     0.816542232  0.386716908  0.000000000
     0.113283092  0.316542232  0.500000000
     0.886716908  0.683457768  0.500000000
     0.613283092  0.183457768  0.000000000
     0.386716908  0.816542232  0.000000000

  ion indices of the primitive-cell ions
   primitive index   ion index
                 1           1
                 2           2
                 3           3
                 4           4
                 5           5
                 6           6
                 7           7
                 8           8
                 9           9
                10          10
                11          11
                12          12
                13          13
                14          14
                15          15
                16          16
                17          17
                18          18
                19          19
                20          20
                21          21
                22          22
                23          23
                24          24
                25          25
                26          26
                27          27
                28          28
                29          29
                30          30
                31          31
                32          32
                33          33
                34          34
                35          35
                36          36

----------------------------------------------------------------------------------------

 
 
 KPOINTS: pymatgen with grid density = 918 / numbe

Automatic generation of k-mesh.
 Grid dimensions read from file:
 generate k-points for:    1    1    6

 Generating k-lattice:

  Cartesian coordinates                     Fractional coordinates (reciprocal lattice)
     0.077755536  0.000000000  0.000000000     1.000000000  0.000000000  0.000000000
     0.000000000  0.077755536  0.000000000     0.000000000  1.000000000  0.000000000
    -0.000000000 -0.000000000  0.044303915     0.000000000  0.000000000  0.166666667

  Length of vectors
     0.077755536  0.077755536  0.044303915

  Shift w.r.t. Gamma in fractional coordinates (k-lattice)
     0.000000000  0.000000000  0.000000000

 TETIRR: Found      9 inequivalent tetrahedra from       36
 
 Subroutine IBZKPT returns following result:
 ===========================================
 
 Found      4 irreducible k-points:
 
 Following reciprocal coordinates:
            Coordinates               Weight
  0.000000  0.000000  0.000000      1.000000
 -0.000000 -0.000000  0.166667      2.000000
 -0.000000 -0.000000  0.333333      2.000000
 -0.000000 -0.000000  0.500000      1.000000
 
 Following cartesian coordinates:
            Coordinates               Weight
  0.000000  0.000000  0.000000      1.000000
 -0.000000 -0.000000  0.044304      2.000000
 -0.000000 -0.000000  0.088608      2.000000
 -0.000000 -0.000000  0.132912      1.000000
 
 
 Subroutine IBZKPT_HF returns following result:
 ==============================================
 
 Found      6 k-points in 1st BZ
 the following      6 k-points will be used (e.g. in the exchange kernel)
 Following reciprocal coordinates:   # in IRBZ
  0.000000  0.000000  0.000000    0.16666667   1 t-inv F
 -0.000000 -0.000000  0.166667    0.16666667   2 t-inv F
 -0.000000 -0.000000  0.333333    0.16666667   3 t-inv F
 -0.000000 -0.000000  0.500000    0.16666667   4 t-inv F
  0.000000  0.000000 -0.166667    0.16666667   2 t-inv F
  0.000000  0.000000 -0.333333    0.16666667   3 t-inv F


--------------------------------------------------------------------------------------------------------




 Dimension of arrays:
   k-points           NKPTS =      4   k-points in BZ     NKDIM =      6   number of bands    NBANDS=    252
   number of dos      NEDOS =   1172   number of ions     NIONS =     36
   non local maximal  LDIM  =      6   non local SUM 2l+1 LMDIM =     18
   total plane-waves  NPLWV = 401408
   max r-space proj   IRMAX =      1   max aug-charges    IRDMAX=  33980
   dimension x,y,z NGX =   112 NGY =  112 NGZ =   32
   dimension x,y,z NGXF=   224 NGYF=  224 NGZF=   64
   support grid    NGXF=   224 NGYF=  224 NGZF=   64
   ions per type =               4  20  12
   NGX,Y,Z   is equivalent  to a cutoff of  14.48, 14.48, 14.14 a.u.
   NGXF,Y,Z  is equivalent  to a cutoff of  28.96, 28.96, 28.28 a.u.

 SYSTEM =  unknown system                          
 POSCAR =  Tl4 Cu20 Se12                           

 Startparameter for this run:
   NWRITE =      2    write-flag & timer
   PREC   = accura    normal or accurate (medium, high low for compatibility)
   ISTART =      0    job   : 0-new  1-cont  2-samecut
   ICHARG =      2    charge: 1-file 2-atom 10-const
   ISPIN  =      1    spin polarized calculation?
   LNONCOLLINEAR =      F non collinear calculations
   LSORBIT =      F    spin-orbit coupling
   INIWAV =      1    electr: 0-lowe 1-rand  2-diag
   LASPH  =      T    aspherical Exc in radial PAW
 Electronic Relaxation 1
   ENCUT  =  680.0 eV  49.98 Ry    7.07 a.u.  27.35 27.35  8.00*2*pi/ulx,y,z
   ENINI  =  680.0     initial cutoff
   ENAUG  = 1360.0 eV  augmentation charge cutoff
   NELM   =    200;   NELMIN=  5; NELMDL= -5     # of ELM steps 
   EDIFF  = 0.1E-04   stopping-criterion for ELM
   LREAL  =      F    real-space projection
   NLSPLINE    = F    spline interpolate recip. space projectors
   LCOMPAT=      F    compatible to vasp.4.4
   GGA_COMPAT  = T    GGA compatible to vasp.4.4-vasp.4.6
   LMAXPAW     = -100 max onsite density
   LMAXMIX     =    6 max onsite mixed and CHGCAR
   VOSKOWN=      0    Vosko Wilk Nusair interpolation
   ROPT   =    0.00000   0.00000   0.00000
 Ionic relaxation
   EDIFFG = 0.1E-03   stopping-criterion for IOM
   NSW    =      0    number of steps for IOM
   NBLOCK =      1;   KBLOCK =      1    inner block; outer block 
   IBRION =     -1    ionic relax: 0-MD 1-quasi-New 2-CG
   NFREE  =      0    steps in history (QN), initial steepest desc. (CG)
   ISIF   =      0    stress and relaxation
   IWAVPR =     10    prediction:  0-non 1-charg 2-wave 3-comb
   ISYM   =      3    0-nonsym 1-usesym 2-fastsym
   LCORR  =      T    Harris-Foulkes like correction to forces

   POTIM  = 0.5000    time-step for ionic-motion
   TEIN   =    0.0    initial temperature
   TEBEG  =    0.0;   TEEND  =   0.0 temperature during run
   SMASS  =  -3.00    Nose mass-parameter (am)
   estimated Nose-frequenzy (Omega)   =  0.10E-29 period in steps = 0.13E+47 mass=  -0.378E-26a.u.
   SCALEE = 1.0000    scale energy and forces
   NPACO  =    256;   APACO  = 10.0  distance and # of slots for P.C.
   PSTRESS=    0.0 pullay stress

  Mass of Ions in am
   POMASS = 204.38 63.55 78.96
  Ionic Valenz
   ZVAL   =  13.00 11.00  6.00
  Atomic Wigner-Seitz radii
   RWIGS  =  -1.00 -1.00 -1.00
  virtual crystal weights 
   VCA    =   1.00  1.00  1.00
   NELECT =     344.0000    total number of electrons
   NUPDOWN=      -1.0000    fix difference up-down

 DOS related values:
   EMIN   =  10.00;   EMAX   =-10.00  energy-range for DOS
   EFERMI =   0.00;   METHOD = LEGACY      
   ISMEAR =    -5;   SIGMA  =   0.05  broadening in eV -4-tet -1-fermi 0-gaus

 Electronic relaxation 2 (details)
   IALGO  =     38    algorithm
   LDIAG  =      T    sub-space diagonalisation (order eigenvalues)
   LSUBROT=      F    optimize rotation matrix (better conditioning)
   TURBO    =      0    0=normal 1=particle mesh
   IRESTART =      0    0=no restart 2=restart with 2 vectors
   NREBOOT  =      0    no. of reboots
   NMIN     =      0    reboot dimension
   EREF     =   0.00    reference energy to select bands
   IMIX   =      1    mixing-type and parameters
     AMIX     =   0.40;   BMIX     =  1.00
     AMIX_MAG =   1.60;   BMIX_MAG =  1.00
     AMIN     =   0.10
     WC   =   100.;   INIMIX=   1;  MIXPRE=   1;  MAXMIX= -45

 Intra band minimization:
   WEIMIN = 0.0000     energy-eigenvalue tresh-hold
   EBREAK =  0.99E-08  absolut break condition
   DEPER  =   0.30     relativ break condition  

   TIME   =   0.40     timestep for ELM

  volume/ion in A,a.u.               =      17.28       116.64
  Fermi-wavevector in a.u.,A,eV,Ry     =   1.343630  2.539092 24.563158  1.805341
  Thomas-Fermi vector in A             =   2.471688
 
 Write flags
   LWAVE        =      F    write WAVECAR
   LDOWNSAMPLE  =      F    k-point downsampling of WAVECAR
   LCHARG       =      F    write CHGCAR
   LVTOT        =      T    write LOCPOT, total local potential
   LVHAR        =      F    write LOCPOT, Hartree potential only
   LELF         =      F    write electronic localiz. function (ELF)
   LORBIT       =     11    0 simple, 1 ext, 2 COOP (PROOUT), +10 PAW based schemes


 Dipole corrections
   LMONO  =      F    monopole corrections only (constant potential shift)
   LDIPOL =      F    correct potential (dipole corrections)
   IDIPOL =      0    1-x, 2-y, 3-z, 4-all directions 
   EPSILON=  1.0000000 bulk dielectric constant

 Exchange correlation treatment:
   GGA     =    PE    GGA type
   LEXCH   =     8    internal setting for exchange type
   LIBXC   =     F    Libxc                    
   VOSKOWN =     0    Vosko Wilk Nusair interpolation
   EXXOEP  =     0    0=HF, 1=EXX-LHF (local Hartree Fock) 2=EXX OEP
   LHFCALC =     T    Hartree Fock is set to
   LSYMGRAD=     F    symmetrize gradient (conserves proper symmetry)
   PRECFOCK=accur.    Normal, Fast or Accurate (Low or Medium for compatibility)
   LRHFCALC=     F    long range Hartree Fock
   LRSCOR  =     F    long range correlation only (use DFT for short range part)
   LTHOMAS =     F    Thomas Fermi screening in HF
   LMODELHF=     F    short range full HF, long range fraction AEXX
   FOCKCORR=     1    mode to apply convergence corrections
   LFOCKACE=     T    use Adeptively-Compressed-Exchange operator
   ENCUT4O =  -1.0   cutoff for four orbital integrals eV
   LMAXFOCK=     4    L truncation for augmentation on plane wave grid
   LMAXFOCKAE=  -1    L truncation for all-electron charge restoration on plane wave grid
   NMAXFOCKAE=   1    number of basis functions for all-electron charge restoration
   LFOCKAEDFT=     F  apply the AE augmentation even for DFT
   NKREDX  =     1    reduce k-point grid by
   NKREDY  =     1    reduce k-point grid by
   NKREDZ  =     1    reduce k-point grid by
   SHIFTRED=     F    shift reduced grid of Gamma
   HFKIDENT=     F    idential grid for each k-point
   ODDONLY =     F    use only odd q-grid points
   EVENONLY=     F    use only even q-grid points
   HFALPHA =   -1.0000 decay constant for conv. correction
   MCALPHA =    0.0000 extent of test-charge in conv. correction in multipole expansion
   AEXX    =    0.2500 exact exchange contribution
   HFSCREEN=    0.2000 screening length (either q_TF or 0.3 A-1)
   HFSCREENC=   0.2000 screening length for correlation (either q_TF or 0.3 A-1)
   HFRCUT  =    0.0000 spherical cutoff for potential kernel
   ALDAX   =    0.7500 LDA exchange part
   AGGAX   =    0.7500 GGA exchange part
   ALDAC   =    1.0000 LDA correlation
   AGGAC   =    1.0000 GGA correlation
   ENCUTFOCK=  -1.0 apply spherical cutoff to Coloumb kernel
   NBANDSGWLOW=     1    first orbital included in HF term
   NBLOCK_FOCK=    64    blocking factor in FOCK_ACC

 Linear response parameters
   LEPSILON=     F    determine dielectric tensor
   LRPA    =     F    only Hartree local field effects (RPA)
   LNABLA  =     F    use nabla operator in PAW spheres
   LVEL    =     F    velocity operator in full k-point grid
   CSHIFT  =0.0000    complex shift for real part using Kramers Kronig
   OMEGAMAX=  -1.0    maximum frequency
   DEG_THRESHOLD= 0.2000000E-02 threshold for treating states as degnerate
   RTIME   =   -0.100 relaxation time in fs
  (WPLASMAI=    0.000 imaginary part of plasma frequency in eV, 0.658/RTIME)
   DFIELD  = 0.0000000 0.0000000 0.0000000 field for delta impulse in time
 
  Optional k-point grid parameters
   LKPOINTS_OPT  =     F    use optional k-point grid
   KPOINTS_OPT_MODE=     1    mode for optional k-point grid
 
 Orbital magnetization related:
   ORBITALMAG=     F  switch on orbital magnetization
   LCHIMAG   =     F  perturbation theory with respect to B field
   DQ        =  0.001000  dq finite difference perturbation B field
   LLRAUG    =     F  two centre corrections for induced B field
   LBONE     =     F  B-component reconstruction in AE one-centre
   LVGVCALC  =     T  calculate vGv susceptibility
   LVGVAPPL  =     F  apply vGv susceptibility instead of pGv for G=0

 Random number generation:
   RANDOM_GENERATOR = DEFAULT
   PCG_SEED         = not used


--------------------------------------------------------------------------------------------------------


 Static calculation
 charge density and potential will be updated during run
 non-spin polarized calculation
 Variant of blocked Davidson
 Davidson routine will perform the subspace rotation
 perform sub-space diagonalisation
    after iterative eigenvector-optimisation
 Kerker-like  mixing scheme
 using additional bands           80
 reciprocal scheme for non local part
 use partial core corrections
 calculate Harris-corrections to forces 
   (improved forces if not selfconsistent)
 use gradient corrections 
 use of overlap-Matrix (Vanderbilt PP)
 Fermi weights with tetrahedron method with Bloechl corrections


--------------------------------------------------------------------------------------------------------


  energy-cutoff  :      680.00
  volume of cell :      622.22
      direct lattice vectors                 reciprocal lattice vectors
    12.860820545  0.000000000  0.000000000     0.077755536  0.000000000  0.000000000
    -0.000000000 12.860820545  0.000000000     0.000000000  0.077755536  0.000000000
     0.000000000  0.000000000  3.761894819    -0.000000000 -0.000000000  0.265823487

  length of vectors
    12.860820545 12.860820545  3.761894819     0.077755536  0.077755536  0.265823487


 
 k-points in units of 2pi/SCALE and weight: pymatgen with grid density = 918 / numbe
   0.00000000  0.00000000  0.00000000       0.167
  -0.00000000 -0.00000000  0.04430391       0.333
  -0.00000000 -0.00000000  0.08860783       0.333
  -0.00000000 -0.00000000  0.13291174       0.167
 
 k-points in reciprocal lattice and weights: pymatgen with grid density = 918 / numbe
   0.00000000  0.00000000  0.00000000       0.167
  -0.00000000 -0.00000000  0.16666667       0.333
  -0.00000000 -0.00000000  0.33333333       0.333
  -0.00000000 -0.00000000  0.50000000       0.167
 
 position of ions in fractional coordinates (direct lattice) 
   0.39656170  0.60343830  0.50000000
   0.60343830  0.39656170  0.50000000
   0.10343830  0.10343830  0.00000000
   0.89656170  0.89656170  0.00000000
   0.31053113  0.31053113  0.50000000
   0.68946887  0.68946887  0.50000000
   0.18946887  0.81053113  0.00000000
   0.81053113  0.18946887  0.00000000
   0.08515488  0.70798175  0.50000000
   0.91484512  0.29201825  0.50000000
   0.41484512  0.20798175  0.00000000
   0.58515488  0.79201825  0.00000000
   0.70798175  0.08515488  0.50000000
   0.29201825  0.91484512  0.50000000
   0.20798175  0.41484512  0.00000000
   0.79201825  0.58515488  0.00000000
   0.09943575  0.51055440  0.50000000
   0.90056425  0.48944560  0.50000000
   0.40056425  0.01055440  0.00000000
   0.59943575  0.98944560  0.00000000
   0.51055440  0.09943575  0.50000000
   0.48944560  0.90056425  0.50000000
   0.01055440  0.40056425  0.00000000
   0.98944560  0.59943575  0.00000000
   0.10638095  0.89361905  0.50000000
   0.89361905  0.10638095  0.50000000
   0.39361905  0.39361905  0.00000000
   0.60638095  0.60638095  0.00000000
   0.31654223  0.11328309  0.50000000
   0.68345777  0.88671691  0.50000000
   0.18345777  0.61328309  0.00000000
   0.81654223  0.38671691  0.00000000
   0.11328309  0.31654223  0.50000000
   0.88671691  0.68345777  0.50000000
   0.61328309  0.18345777  0.00000000
   0.38671691  0.81654223  0.00000000
 
 position of ions in cartesian coordinates  (Angst):
   5.10010883  7.76071172  1.88094741
   7.76071172  5.10010883  1.88094741
   1.33030144  1.33030144  0.00000000
  11.53051910 11.53051910  0.00000000
   3.99368514  3.99368514  1.88094741
   8.86713541  8.86713541  1.88094741
   2.43672513 10.42409541  0.00000000
  10.42409541  2.43672513  0.00000000
   1.09516160  9.10522617  1.88094741
  11.76565894  3.75559437  1.88094741
   5.33524867  2.67481590  0.00000000
   7.52557187 10.18600464  0.00000000
   9.10522617  1.09516160  1.88094741
   3.75559437 11.76565894  1.88094741
   2.67481590  5.33524867  0.00000000
  10.18600464  7.52557187  0.00000000
   1.27882529  6.56614850  1.88094741
  11.58199526  6.29467204  1.88094741
   5.15158499  0.13573823  0.00000000
   7.70923556 12.72508231  0.00000000
   6.56614850  1.27882529  1.88094741
   6.29467204 11.58199526  1.88094741
   0.13573823  5.15158499  0.00000000
  12.72508231  7.70923556  0.00000000
   1.36814636 11.49267418  1.88094741
  11.49267418  1.36814636  1.88094741
   5.06226391  5.06226391  0.00000000
   7.79855663  7.79855663  0.00000000
   4.07099284  1.45691351  1.88094741
   8.78982770 11.40390703  1.88094741
   2.35941743  7.88732378  0.00000000
  10.50140311  4.97349676  0.00000000
   1.45691351  4.07099284  1.88094741
  11.40390703  8.78982770  1.88094741
   7.88732378  2.35941743  0.00000000
   4.97349676 10.50140311  0.00000000
 


--------------------------------------------------------------------------------------------------------


 k-point   1 :   0.0000 0.0000 0.0000  plane waves:   25023
 k-point   2 :  -0.0000-0.0000 0.1667  plane waves:   25048
 k-point   3 :  -0.0000-0.0000 0.3333  plane waves:   25104
 k-point   4 :  -0.0000-0.0000 0.5000  plane waves:   25032

 maximum and minimum number of plane-waves per node :      1316     1202

 maximum number of plane-waves:     25104
 maximum index in each direction: 
   IXMAX=   27   IYMAX=   27   IZMAX=    7
   IXMIN=  -27   IYMIN=  -27   IZMIN=   -8


 parallel 3D FFT for wavefunctions:
    minimum data exchange during FFTs selected (reduces bandwidth)
 parallel 3D FFT for charge:
    minimum data exchange during FFTs selected (reduces bandwidth)

 
 Radii for the augmentation spheres in the non-local exchange
 for species   1 augmentation radius   1.436 (default was   1.149)
       energy cutoff for augmentation   2720.0
 for species   2 augmentation radius   1.179 (default was   0.943)
       energy cutoff for augmentation   2720.0
 for species   3 augmentation radius   1.351 (default was   1.081)
       energy cutoff for augmentation   2720.0

 real space projection operators:
  total allocation   :      39125.00 KBytes
  max/ min on nodes  :       2090.23       1814.06

 Maximum index for augmentation-charges in exchange          545
  SETUP_FOCK is finished

 total amount of memory used by VASP MPI-rank0    49442. kBytes
=======================================================================

   base      :      30000. kBytes
   nonl-proj :       3055. kBytes
   fftplans  :       2327. kBytes
   grid      :       2748. kBytes
   one-center:         31. kBytes
   HF        :        129. kBytes
   nonlr-proj:       7491. kBytes
   wavefun   :       3661. kBytes
 
     INWAV:  cpu time      0.0001: real time      0.0008
 initial charge density was supplied:
 charge density of overlapping atoms calculated
 number of electron     344.0000000 magnetization 
 keeping initial charge density in first step


--------------------------------------------------------------------------------------------------------


 Maximum index for augmentation-charges          806 (set IRDMAX)


--------------------------------------------------------------------------------------------------------


 First call to EWALD:  gamma=   0.208
 Maximum number of real-space cells 2x 2x 6
 Maximum number of reciprocal cells 4x 4x 1

    FEWALD:  cpu time      0.0021: real time      0.0023


--------------------------------------- Ionic step        1  -------------------------------------------




--------------------------------------- Iteration      1(   1)  ---------------------------------------


    POTLOK:  cpu time      0.0376: real time      0.0399
    SETDIJ:  cpu time      0.1322: real time      0.1327
     EDDAV:  cpu time      1.4490: real time      1.5161
 BZINTS: Fermi energy:   29.176436;  344.000000 electrons
         Band energy: 0.426696E+04;  BLOECHL correction:   -0.136784
       DOS:  cpu time      0.0068: real time      0.0071
    --------------------------------------------
      LOOP:  cpu time      1.6257: real time      1.6959

 eigenvalue-minimisations  :  2124
 total energy-change (2. order) :-0.2052056E+05  (-0.1626279E+05)
 number of electron     344.0000000 magnetization 
 augmentation part      344.0000000 magnetization 

 Free energy of the ion-electron system (eV)
  ---------------------------------------------------
  alpha Z        PSCENC =      1369.24157313
  Ewald energy   TEWEN  =    -23810.64517069
  -Hartree energ DENC   =    -14168.96470651
  -exchange      EXHF   =         0.00000000
  -V(xc)+E(xc)   XCENC  =      1012.83189152
  PAW double counting   =     32076.20786351   -57669.93998226
  entropy T*S    EENTRO =         0.00000000
  eigenvalues    EBANDS =      4266.95630690
  atomic energy  EATOM  =     36403.75672706
  Solvation  Ediel_sol  =         0.00000000
  ---------------------------------------------------
  free energy    TOTEN  =    -20520.55549735 eV

  energy without entropy =   -20520.55549735  energy(sigma->0) =   -20520.55549735
  exchange ACFDT corr.  =         0.00000000  see jH, gK, PRB 81, 115126


--------------------------------------------------------------------------------------------------------




--------------------------------------- Iteration      1(   2)  ---------------------------------------


     EDDAV:  cpu time      1.2776: real time      1.2829
 BZINTS: Fermi energy:   12.650888;  344.000000 electrons
         Band energy: 0.860922E+03;  BLOECHL correction:   -0.196599
       DOS:  cpu time      0.0065: real time      0.0065
    --------------------------------------------
      LOOP:  cpu time      1.2841: real time      1.2894

 eigenvalue-minimisations  :  2016
 total energy-change (2. order) :-0.3406034E+04  (-0.3120040E+04)
 number of electron     344.0000000 magnetization 
 augmentation part      344.0000000 magnetization 

 Free energy of the ion-electron system (eV)
  ---------------------------------------------------
  alpha Z        PSCENC =      1369.24157313
  Ewald energy   TEWEN  =    -23810.64517069
  -Hartree energ DENC   =    -14168.96470651
  -exchange      EXHF   =         0.00000000
  -V(xc)+E(xc)   XCENC  =      1012.83189152
  PAW double counting   =     32076.20786351   -57669.93998226
  entropy T*S    EENTRO =         0.00000000
  eigenvalues    EBANDS =       860.92223986
  atomic energy  EATOM  =     36403.75672706
  Solvation  Ediel_sol  =         0.00000000
  ---------------------------------------------------
  free energy    TOTEN  =    -23926.58956439 eV

  energy without entropy =   -23926.58956439  energy(sigma->0) =   -23926.58956439
  exchange ACFDT corr.  =         0.00000000  see jH, gK, PRB 81, 115126


--------------------------------------------------------------------------------------------------------




--------------------------------------- Iteration      1(   3)  ---------------------------------------


     EDDAV:  cpu time      1.2642: real time      1.2846
 BZINTS: Fermi energy:    6.196412;  344.000000 electrons
         Band energy:-0.479524E+02;  BLOECHL correction:   -0.078809
       DOS:  cpu time      0.0050: real time      0.0050
    --------------------------------------------
      LOOP:  cpu time      1.2693: real time      1.2897

 eigenvalue-minimisations  :  2016
 total energy-change (2. order) :-0.9088746E+03  (-0.8318777E+03)
 number of electron     344.0000000 magnetization 
 augmentation part      344.0000000 magnetization 

 Free energy of the ion-electron system (eV)
  ---------------------------------------------------
  alpha Z        PSCENC =      1369.24157313
  Ewald energy   TEWEN  =    -23810.64517069
  -Hartree energ DENC   =    -14168.96470651
  -exchange      EXHF   =         0.00000000
  -V(xc)+E(xc)   XCENC  =      1012.83189152
  PAW double counting   =     32076.20786351   -57669.93998226
  entropy T*S    EENTRO =         0.00000000
  eigenvalues    EBANDS =       -47.95238627
  atomic energy  EATOM  =     36403.75672706
  Solvation  Ediel_sol  =         0.00000000
  ---------------------------------------------------
  free energy    TOTEN  =    -24835.46419051 eV

  energy without entropy =   -24835.46419051  energy(sigma->0) =   -24835.46419051
  exchange ACFDT corr.  =         0.00000000  see jH, gK, PRB 81, 115126


--------------------------------------------------------------------------------------------------------




--------------------------------------- Iteration      1(   4)  ---------------------------------------


     EDDAV:  cpu time      1.5959: real time      1.6160
 BZINTS: Fermi energy:    4.669082;  344.000000 electrons
         Band energy:-0.163071E+03;  BLOECHL correction:    0.000000
       DOS:  cpu time      0.0029: real time      0.0029
    --------------------------------------------
      LOOP:  cpu time      1.5987: real time      1.6189

 eigenvalue-minimisations  :  2736
 total energy-change (2. order) :-0.1151183E+03  (-0.1104366E+03)
 number of electron     344.0000000 magnetization 
 augmentation part      344.0000000 magnetization 

 Free energy of the ion-electron system (eV)
  ---------------------------------------------------
  alpha Z        PSCENC =      1369.24157313
  Ewald energy   TEWEN  =    -23810.64517069
  -Hartree energ DENC   =    -14168.96470651
  -exchange      EXHF   =         0.00000000
  -V(xc)+E(xc)   XCENC  =      1012.83189152
  PAW double counting   =     32076.20786351   -57669.93998226
  entropy T*S    EENTRO =         0.00000000
  eigenvalues    EBANDS =      -163.07067322
  atomic energy  EATOM  =     36403.75672706
  Solvation  Ediel_sol  =         0.00000000
  ---------------------------------------------------
  free energy    TOTEN  =    -24950.58247747 eV

  energy without entropy =   -24950.58247747  energy(sigma->0) =   -24950.58247747
  exchange ACFDT corr.  =         0.00000000  see jH, gK, PRB 81, 115126


--------------------------------------------------------------------------------------------------------




--------------------------------------- Iteration      1(   5)  ---------------------------------------


    POTLOK:  cpu time      0.0597: real time      0.0761
    SETDIJ:  cpu time      0.3571: real time      0.3580
     EDDAV:  cpu time    263.8173: real time    264.5183
 BZINTS: Fermi energy:    5.609145;  344.000000 electrons
         Band energy: 0.118868E+03;  BLOECHL correction:    0.000000
       DOS:  cpu time      0.0029: real time      0.0030
    CHARGE:  cpu time      0.0799: real time      0.0805
    MIXING:  cpu time      0.0009: real time      0.0009
    --------------------------------------------
      LOOP:  cpu time    264.3178: real time    265.0367

 eigenvalue-minimisations  :  2520
 total energy-change (2. order) : 0.2480344E+05  (-0.2018133E+02)
 number of electron     344.0000002 magnetization 
 augmentation part      148.8800487 magnetization 

 Free energy of the ion-electron system (eV)
  ---------------------------------------------------
  alpha Z        PSCENC =      1369.24157313
  Ewald energy   TEWEN  =    -23810.64517069
  -Hartree energ DENC   =    -14168.96470651
  -exchange      EXHF   =       854.63734767
  -V(xc)+E(xc)   XCENC  =       757.95753728
  PAW double counting   =     32317.32920491   -33989.32256305
  entropy T*S    EENTRO =         0.00000000
  eigenvalues    EBANDS =       118.86802730
  atomic energy  EATOM  =     36403.75672706
  Solvation  Ediel_sol  =         0.00000000
  ---------------------------------------------------
  free energy    TOTEN  =      -147.14202291 eV

  energy without entropy =     -147.14202291  energy(sigma->0) =     -147.14202291
  exchange ACFDT corr.  =         0.00000000  see jH, gK, PRB 81, 115126


--------------------------------------------------------------------------------------------------------




--------------------------------------- Iteration      1(   6)  ---------------------------------------


    POTLOK:  cpu time      0.0548: real time      0.0714
    SETDIJ:  cpu time      0.3785: real time      0.3794
     EDDAV:  cpu time    262.8422: real time    263.5514
 BZINTS: Fermi energy:    5.655191;  344.000000 electrons
         Band energy: 0.138832E+02;  BLOECHL correction:    0.000000
       DOS:  cpu time      0.0030: real time      0.0032
    CHARGE:  cpu time      0.0880: real time      0.0883
    MIXING:  cpu time      0.0008: real time      0.0008
    --------------------------------------------
      LOOP:  cpu time    263.3673: real time    264.0944

 eigenvalue-minimisations  :  3084
 total energy-change (2. order) : 0.4482232E+00  (-0.8716915E+00)
 number of electron     344.0000004 magnetization 
 augmentation part      149.8171832 magnetization 

 Free energy of the ion-electron system (eV)
  ---------------------------------------------------
  alpha Z        PSCENC =      1369.24157313
  Ewald energy   TEWEN  =    -23810.64517069
  -Hartree energ DENC   =    -14027.05999382
  -exchange      EXHF   =       822.15447419
  -V(xc)+E(xc)   XCENC  =       754.50786424
  PAW double counting   =     34333.61710624   -36006.14962115
  entropy T*S    EENTRO =         0.00000000
  eigenvalues    EBANDS =        13.88324110
  atomic energy  EATOM  =     36403.75672706
  Solvation  Ediel_sol  =         0.00000000
  ---------------------------------------------------
  free energy    TOTEN  =      -146.69379969 eV

  energy without entropy =     -146.69379969  energy(sigma->0) =     -146.69379969
  exchange ACFDT corr.  =         0.00000000  see jH, gK, PRB 81, 115126


--------------------------------------------------------------------------------------------------------




--------------------------------------- Iteration      1(   7)  ---------------------------------------


    POTLOK:  cpu time      0.0560: real time      0.0694
    SETDIJ:  cpu time      0.3569: real time      0.3578
     EDDAV:  cpu time    263.7339: real time    264.4446
 BZINTS: Fermi energy:    5.726010;  344.000000 electrons
         Band energy:-0.206869E+02;  BLOECHL correction:    0.000000
       DOS:  cpu time      0.0028: real time      0.0029
    CHARGE:  cpu time      0.0685: real time      0.0687
    MIXING:  cpu time      0.0004: real time      0.0004
    --------------------------------------------
      LOOP:  cpu time    264.2186: real time    264.9438

 eigenvalue-minimisations  :  3108
 total energy-change (2. order) : 0.3045313E+00  (-0.3910235E+00)
 number of electron     344.0000004 magnetization 
 augmentation part      150.7745266 magnetization 

 Free energy of the ion-electron system (eV)
  ---------------------------------------------------
  alpha Z        PSCENC =      1369.24157313
  Ewald energy   TEWEN  =    -23810.64517069
  -Hartree energ DENC   =    -13977.99709894
  -exchange      EXHF   =       823.28897162
  -V(xc)+E(xc)   XCENC  =       753.25851696
  PAW double counting   =     35688.81055729   -37375.41644740
  entropy T*S    EENTRO =         0.00000000
  eigenvalues    EBANDS =       -20.68689739
  atomic energy  EATOM  =     36403.75672706
  Solvation  Ediel_sol  =         0.00000000
  ---------------------------------------------------
  free energy    TOTEN  =      -146.38926837 eV

  energy without entropy =     -146.38926837  energy(sigma->0) =     -146.38926837
  exchange ACFDT corr.  =         0.00000000  see jH, gK, PRB 81, 115126


--------------------------------------------------------------------------------------------------------




--------------------------------------- Iteration      1(   8)  ---------------------------------------


    POTLOK:  cpu time      0.0744: real time      0.0857
    SETDIJ:  cpu time      0.3561: real time      0.3570
     EDDAV:  cpu time    262.9814: real time    263.6996
 BZINTS: Fermi energy:    5.818826;  344.000000 electrons
         Band energy: 0.594171E+00;  BLOECHL correction:    0.000000
       DOS:  cpu time      0.0028: real time      0.0029
    CHARGE:  cpu time      0.0757: real time      0.0759
    MIXING:  cpu time      0.0004: real time      0.0004
    --------------------------------------------
      LOOP:  cpu time    263.4908: real time    264.2216

 eigenvalue-minimisations  :  3036
 total energy-change (2. order) : 0.4008731E-01  (-0.1121317E+00)
 number of electron     344.0000005 magnetization 
 augmentation part      150.6209152 magnetization 

 Free energy of the ion-electron system (eV)
  ---------------------------------------------------
  alpha Z        PSCENC =      1369.24157313
  Ewald energy   TEWEN  =    -23810.64517069
  -Hartree energ DENC   =    -13981.45683415
  -exchange      EXHF   =       824.97909796
  -V(xc)+E(xc)   XCENC  =       753.49510881
  PAW double counting   =     36593.52852304   -38299.84237760
  entropy T*S    EENTRO =         0.00000000
  eigenvalues    EBANDS =         0.59417137
  atomic energy  EATOM  =     36403.75672706
  Solvation  Ediel_sol  =         0.00000000
  ---------------------------------------------------
  free energy    TOTEN  =      -146.34918107 eV

  energy without entropy =     -146.34918107  energy(sigma->0) =     -146.34918107
  exchange ACFDT corr.  =         0.00000000  see jH, gK, PRB 81, 115126


--------------------------------------------------------------------------------------------------------




--------------------------------------- Iteration      1(   9)  ---------------------------------------


    POTLOK:  cpu time      0.0864: real time      0.1904
    SETDIJ:  cpu time      0.4548: real time      0.4560
     EDDAV:  cpu time    263.7083: real time    264.4112
 BZINTS: Fermi energy:    5.802717;  344.000000 electrons
         Band energy: 0.143409E+01;  BLOECHL correction:    0.000000
       DOS:  cpu time      0.0039: real time      0.0040
    CHARGE:  cpu time      0.0651: real time      0.0652
    MIXING:  cpu time      0.0004: real time      0.0004
    --------------------------------------------
      LOOP:  cpu time    264.3188: real time    265.1272

 eigenvalue-minimisations  :  3012
 total energy-change (2. order) : 0.4038835E-01  (-0.1050983E-01)
 number of electron     344.0000005 magnetization 
 augmentation part      150.5480937 magnetization 

 Free energy of the ion-electron system (eV)
  ---------------------------------------------------
  alpha Z        PSCENC =      1369.24157313
  Ewald energy   TEWEN  =    -23810.64517069
  -Hartree energ DENC   =    -13972.47220792
  -exchange      EXHF   =       823.88820156
  -V(xc)+E(xc)   XCENC  =       753.31668183
  PAW double counting   =     37204.37607580   -38919.20476617
  entropy T*S    EENTRO =         0.00000000
  eigenvalues    EBANDS =         1.43409269
  atomic energy  EATOM  =     36403.75672706
  Solvation  Ediel_sol  =         0.00000000
  ---------------------------------------------------
  free energy    TOTEN  =      -146.30879272 eV

  energy without entropy =     -146.30879272  energy(sigma->0) =     -146.30879272
  exchange ACFDT corr.  =         0.00000000  see jH, gK, PRB 81, 115126


--------------------------------------------------------------------------------------------------------




--------------------------------------- Iteration      1(  10)  ---------------------------------------


    POTLOK:  cpu time      0.0477: real time      0.0616
    SETDIJ:  cpu time      0.3565: real time      0.3576
     EDDAV:  cpu time    264.3748: real time    265.0601
 BZINTS: Fermi energy:    5.808920;  344.000000 electrons
         Band energy:-0.244332E+01;  BLOECHL correction:    0.000000
       DOS:  cpu time      0.0028: real time      0.0029
    CHARGE:  cpu time      0.0662: real time      0.0663
    MIXING:  cpu time      0.0003: real time      0.0003
    --------------------------------------------
      LOOP:  cpu time    264.8482: real time    265.5487

 eigenvalue-minimisations  :  3000
 total energy-change (2. order) : 0.1850368E-01  (-0.2705636E-02)
 number of electron     344.0000005 magnetization 
 augmentation part      150.5732253 magnetization 

 Free energy of the ion-electron system (eV)
  ---------------------------------------------------
  alpha Z        PSCENC =      1369.24157313
  Ewald energy   TEWEN  =    -23810.64517069
  -Hartree energ DENC   =    -13963.86347891
  -exchange      EXHF   =       823.75868387
  -V(xc)+E(xc)   XCENC  =       753.14702553
  PAW double counting   =     37562.58621192   -39281.82853906
  entropy T*S    EENTRO =         0.00000000
  eigenvalues    EBANDS =        -2.44332189
  atomic energy  EATOM  =     36403.75672706
  Solvation  Ediel_sol  =         0.00000000
  ---------------------------------------------------
  free energy    TOTEN  =      -146.29028904 eV

  energy without entropy =     -146.29028904  energy(sigma->0) =     -146.29028904
  exchange ACFDT corr.  =         0.00000000  see jH, gK, PRB 81, 115126


--------------------------------------------------------------------------------------------------------




--------------------------------------- Iteration      1(  11)  ---------------------------------------


    POTLOK:  cpu time      0.0780: real time      0.0893
    SETDIJ:  cpu time      0.3572: real time      0.3580
     EDDAV:  cpu time    263.2964: real time    263.9810
 BZINTS: Fermi energy:    5.804494;  344.000000 electrons
         Band energy:-0.287286E+01;  BLOECHL correction:    0.000000
       DOS:  cpu time      0.0029: real time      0.0030
    CHARGE:  cpu time      0.0756: real time      0.0758
    MIXING:  cpu time      0.0003: real time      0.0003
    --------------------------------------------
      LOOP:  cpu time    263.8104: real time    264.5075

 eigenvalue-minimisations  :  2988
 total energy-change (2. order) : 0.5619449E-02  (-0.8677559E-03)
 number of electron     344.0000006 magnetization 
 augmentation part      150.5710727 magnetization 

 Free energy of the ion-electron system (eV)
  ---------------------------------------------------
  alpha Z        PSCENC =      1369.24157313
  Ewald energy   TEWEN  =    -23810.64517069
  -Hartree energ DENC   =    -13960.36923100
  -exchange      EXHF   =       823.98281703
  -V(xc)+E(xc)   XCENC  =       753.11000576
  PAW double counting   =     37762.59820002   -39485.08672681
  entropy T*S    EENTRO =         0.00000000
  eigenvalues    EBANDS =        -2.87286409
  atomic energy  EATOM  =     36403.75672706
  Solvation  Ediel_sol  =         0.00000000
  ---------------------------------------------------
  free energy    TOTEN  =      -146.28466959 eV

  energy without entropy =     -146.28466959  energy(sigma->0) =     -146.28466959
  exchange ACFDT corr.  =         0.00000000  see jH, gK, PRB 81, 115126


--------------------------------------------------------------------------------------------------------




--------------------------------------- Iteration      1(  12)  ---------------------------------------


    POTLOK:  cpu time      0.0521: real time      0.0709
    SETDIJ:  cpu time      0.3587: real time      0.3597
     EDDAV:  cpu time    264.4242: real time    265.1207
 BZINTS: Fermi energy:    5.801621;  344.000000 electrons
         Band energy:-0.266001E+01;  BLOECHL correction:    0.000000
       DOS:  cpu time      0.0029: real time      0.0031
    CHARGE:  cpu time      0.0661: real time      0.0663
    MIXING:  cpu time      0.0004: real time      0.0004
    --------------------------------------------
      LOOP:  cpu time    264.9045: real time    265.6210

 eigenvalue-minimisations  :  2964
 total energy-change (2. order) : 0.1962913E-02  (-0.1688778E-03)
 number of electron     344.0000006 magnetization 
 augmentation part      150.5607256 magnetization 

 Free energy of the ion-electron system (eV)
  ---------------------------------------------------
  alpha Z        PSCENC =      1369.24157313
  Ewald energy   TEWEN  =    -23810.64517069
  -Hartree energ DENC   =    -13958.60403182
  -exchange      EXHF   =       824.05189495
  -V(xc)+E(xc)   XCENC  =       753.10100127
  PAW double counting   =     37872.67876397   -39597.20345290
  entropy T*S    EENTRO =         0.00000000
  eigenvalues    EBANDS =        -2.66001165
  atomic energy  EATOM  =     36403.75672706
  Solvation  Ediel_sol  =         0.00000000
  ---------------------------------------------------
  free energy    TOTEN  =      -146.28270668 eV

  energy without entropy =     -146.28270668  energy(sigma->0) =     -146.28270668
  exchange ACFDT corr.  =         0.00000000  see jH, gK, PRB 81, 115126


--------------------------------------------------------------------------------------------------------




--------------------------------------- Iteration      1(  13)  ---------------------------------------


    POTLOK:  cpu time      0.0756: real time      0.0881
    SETDIJ:  cpu time      0.3569: real time      0.3577
     EDDAV:  cpu time    264.1239: real time    264.7986
 BZINTS: Fermi energy:    5.799207;  344.000000 electrons
         Band energy:-0.280461E+01;  BLOECHL correction:    0.000000
       DOS:  cpu time      0.0030: real time      0.0031
    CHARGE:  cpu time      0.0731: real time      0.0732
    MIXING:  cpu time      0.0006: real time      0.0006
    --------------------------------------------
      LOOP:  cpu time    264.6330: real time    265.3214

 eigenvalue-minimisations  :  2892
 total energy-change (2. order) : 0.6326246E-03  (-0.7162788E-04)
 number of electron     344.0000006 magnetization 
 augmentation part      150.5566216 magnetization 

 Free energy of the ion-electron system (eV)
  ---------------------------------------------------
  alpha Z        PSCENC =      1369.24157313
  Ewald energy   TEWEN  =    -23810.64517069
  -Hartree energ DENC   =    -13957.29860574
  -exchange      EXHF   =       824.04012414
  -V(xc)+E(xc)   XCENC  =       753.08609261
  PAW double counting   =     37934.38352353   -39660.04172513
  entropy T*S    EENTRO =         0.00000000
  eigenvalues    EBANDS =        -2.80461296
  atomic energy  EATOM  =     36403.75672706
  Solvation  Ediel_sol  =         0.00000000
  ---------------------------------------------------
  free energy    TOTEN  =      -146.28207405 eV

  energy without entropy =     -146.28207405  energy(sigma->0) =     -146.28207405
  exchange ACFDT corr.  =         0.00000000  see jH, gK, PRB 81, 115126


--------------------------------------------------------------------------------------------------------




--------------------------------------- Iteration      1(  14)  ---------------------------------------


    POTLOK:  cpu time      0.0683: real time      0.0826
    SETDIJ:  cpu time      0.3783: real time      0.3794
     EDDAV:  cpu time    263.9252: real time    264.6008
 BZINTS: Fermi energy:    5.796755;  344.000000 electrons
         Band energy:-0.296661E+01;  BLOECHL correction:    0.000000
       DOS:  cpu time      0.0028: real time      0.0029
    CHARGE:  cpu time      0.0654: real time      0.0655
    MIXING:  cpu time      0.0003: real time      0.0003
    --------------------------------------------
      LOOP:  cpu time    264.4403: real time    265.1314

 eigenvalue-minimisations  :  3024
 total energy-change (2. order) : 0.1906436E-03  (-0.1972673E-04)
 number of electron     344.0000006 magnetization 
 augmentation part      150.5568673 magnetization 

 Free energy of the ion-electron system (eV)
  ---------------------------------------------------
  alpha Z        PSCENC =      1369.24157313
  Ewald energy   TEWEN  =    -23810.64517069
  -Hartree energ DENC   =    -13956.47463064
  -exchange      EXHF   =       824.03907826
  -V(xc)+E(xc)   XCENC  =       753.07399380
  PAW double counting   =     37968.95509503   -39695.26193600
  entropy T*S    EENTRO =         0.00000000
  eigenvalues    EBANDS =        -2.96661335
  atomic energy  EATOM  =     36403.75672706
  Solvation  Ediel_sol  =         0.00000000
  ---------------------------------------------------
  free energy    TOTEN  =      -146.28188341 eV

  energy without entropy =     -146.28188341  energy(sigma->0) =     -146.28188341
  exchange ACFDT corr.  =         0.00000000  see jH, gK, PRB 81, 115126


--------------------------------------------------------------------------------------------------------




--------------------------------------- Iteration      1(  15)  ---------------------------------------


    POTLOK:  cpu time      0.0677: real time      0.0806
    SETDIJ:  cpu time      0.3583: real time      0.3591
     EDDAV:  cpu time    264.7719: real time    265.4457
 BZINTS: Fermi energy:    5.801092;  344.000000 electrons
         Band energy:-0.298445E+01;  BLOECHL correction:    0.000000
       DOS:  cpu time      0.0029: real time      0.0030
    CHARGE:  cpu time      0.0643: real time      0.0645
    MIXING:  cpu time      0.0003: real time      0.0003
    --------------------------------------------
      LOOP:  cpu time    265.2653: real time    265.9532

 eigenvalue-minimisations  :  2748
 total energy-change (2. order) : 0.4822972E-04  (-0.9761461E-05)
 number of electron     344.0000006 magnetization 
 augmentation part      150.5561500 magnetization 

 Free energy of the ion-electron system (eV)
  ---------------------------------------------------
  alpha Z        PSCENC =      1369.24157313
  Ewald energy   TEWEN  =    -23810.64517069
  -Hartree energ DENC   =    -13956.05308117
  -exchange      EXHF   =       824.04394663
  -V(xc)+E(xc)   XCENC  =       753.06779246
  PAW double counting   =     37988.45753076   -39715.16670085
  entropy T*S    EENTRO =         0.00000000
  eigenvalues    EBANDS =        -2.98445250
  atomic energy  EATOM  =     36403.75672706
  Solvation  Ediel_sol  =         0.00000000
  ---------------------------------------------------
  free energy    TOTEN  =      -146.28183518 eV

  energy without entropy =     -146.28183518  energy(sigma->0) =     -146.28183518
  exchange ACFDT corr.  =         0.00000000  see jH, gK, PRB 81, 115126


--------------------------------------------------------------------------------------------------------




--------------------------------------- Iteration      1(  16)  ---------------------------------------


    POTLOK:  cpu time      0.0518: real time      0.0636
    SETDIJ:  cpu time      0.3565: real time      0.3576
     EDDAV:  cpu time    263.2122: real time    263.9062
 BZINTS: Fermi energy:    5.798738;  344.000000 electrons
         Band energy:-0.300710E+01;  BLOECHL correction:    0.000000
       DOS:  cpu time      0.0031: real time      0.0032
    --------------------------------------------
      LOOP:  cpu time    263.6236: real time    264.3306

 eigenvalue-minimisations  :  2016
 total energy-change (2. order) : 0.8621333E-05  (-0.3297577E-05)
 number of electron     344.0000006 magnetization 
 augmentation part      150.5561500 magnetization 

 Free energy of the ion-electron system (eV)
  ---------------------------------------------------
  alpha Z        PSCENC =      1369.24157313
  Ewald energy   TEWEN  =    -23810.64517069
  -Hartree energ DENC   =    -13955.79549236
  -exchange      EXHF   =       824.04432760
  -V(xc)+E(xc)   XCENC  =       753.06360578
  PAW double counting   =     37999.66071932   -39726.60101260
  entropy T*S    EENTRO =         0.00000000
  eigenvalues    EBANDS =        -3.00710381
  atomic energy  EATOM  =     36403.75672706
  Solvation  Ediel_sol  =         0.00000000
  ---------------------------------------------------
  free energy    TOTEN  =      -146.28182656 eV

  energy without entropy =     -146.28182656  energy(sigma->0) =     -146.28182656
  exchange ACFDT corr.  =         0.00000000  see jH, gK, PRB 81, 115126


--------------------------------------------------------------------------------------------------------




 average (electrostatic) potential at core
  the test charge radii are     1.1488  0.9430  1.0808
  (the norm of the test charge is              1.0000)
       1 -77.6303       2 -77.6304       3 -77.6304       4 -77.6304       5 -56.7757
       6 -56.7757       7 -56.7757       8 -56.7757       9 -56.9531      10 -56.9531
      11 -56.9531      12 -56.9531      13 -56.9531      14 -56.9531      15 -56.9531
      16 -56.9531      17 -57.4910      18 -57.4910      19 -57.4911      20 -57.4910
      21 -57.4910      22 -57.4910      23 -57.4910      24 -57.4910      25 -48.4060
      26 -48.4060      27 -48.4060      28 -48.4060      29 -49.2123      30 -49.2123
      31 -49.2123      32 -49.2123      33 -49.2123      34 -49.2123      35 -49.2123
      36 -49.2123
 
 
 
 E-fermi :   5.7987     XC(G=0):  -8.9643     alpha+bet :-11.4092

 Fermi energy:         5.7987376011

 k-point     1 :       0.0000    0.0000    0.0000
  band No.  band energies     occupation 
      1     -10.2288      2.00000
      2      -9.9389      2.00000
      3      -9.8751      2.00000
      4      -9.8751      2.00000
      5      -9.6138      2.00000
      6      -9.6138      2.00000
      7      -9.5865      2.00000
      8      -9.3398      2.00000
      9      -9.1285      2.00000
     10      -8.9811      2.00000
     11      -8.9005      2.00000
     12      -8.9005      2.00000
     13      -7.1827      2.00000
     14      -7.1822      2.00000
     15      -7.1486      2.00000
     16      -7.1486      2.00000
     17      -7.0501      2.00000
     18      -7.0498      2.00000
     19      -7.0146      2.00000
     20      -7.0145      2.00000
     21      -6.9840      2.00000
     22      -6.9840      2.00000
     23      -6.9824      2.00000
     24      -6.9734      2.00000
     25      -6.9734      2.00000
     26      -6.9671      2.00000
     27      -6.9671      2.00000
     28      -6.9667      2.00000
     29      -6.9595      2.00000
     30      -6.9594      2.00000
     31      -6.9262      2.00000
     32      -6.9262      2.00000
     33      -2.6786      2.00000
     34      -2.0752      2.00000
     35      -2.0620      2.00000
     36      -2.0620      2.00000
     37      -1.7660      2.00000
     38      -1.7048      2.00000
     39      -1.4820      2.00000
     40      -1.4820      2.00000
     41      -1.4804      2.00000
     42      -1.3960      2.00000
     43      -0.9581      2.00000
     44      -0.9581      2.00000
     45      -0.1354      2.00000
     46      -0.1341      2.00000
     47      -0.1235      2.00000
     48      -0.1235      2.00000
     49      -0.1231      2.00000
     50      -0.0961      2.00000
     51      -0.0559      2.00000
     52      -0.0402      2.00000
     53       0.3095      2.00000
     54       0.3095      2.00000
     55       0.3502      2.00000
     56       0.3502      2.00000
     57       0.3687      2.00000
     58       0.3891      2.00000
     59       0.4012      2.00000
     60       0.4436      2.00000
     61       0.4436      2.00000
     62       0.5099      2.00000
     63       0.5099      2.00000
     64       0.5708      2.00000
     65       0.6028      2.00000
     66       0.8545      2.00000
     67       0.8848      2.00000
     68       0.9713      2.00000
     69       1.0247      2.00000
     70       1.0247      2.00000
     71       1.0380      2.00000
     72       1.1010      2.00000
     73       1.1010      2.00000
     74       1.1608      2.00000
     75       1.1651      2.00000
     76       1.1775      2.00000
     77       1.1775      2.00000
     78       1.1777      2.00000
     79       1.1777      2.00000
     80       1.2482      2.00000
     81       1.3436      2.00000
     82       1.3436      2.00000
     83       1.3629      2.00000
     84       1.3886      2.00000
     85       1.3886      2.00000
     86       1.4356      2.00000
     87       1.5102      2.00000
[...]
   28.764077    0.579681    0.579681    0.571606    0.000000   -0.000000   -0.000000
   28.793548    0.580716    0.580716    0.572663    0.000000   -0.000000   -0.000000
   28.823019    0.581747    0.581747    0.573715    0.000000   -0.000000   -0.000000
   28.852491    0.582773    0.582773    0.574762    0.000000   -0.000000   -0.000000
   28.881962    0.583794    0.583794    0.575805    0.000000   -0.000000   -0.000000
   28.911434    0.584811    0.584811    0.576843    0.000000   -0.000000   -0.000000
   28.940905    0.585824    0.585824    0.577876    0.000000   -0.000000   -0.000000
   28.970376    0.586832    0.586832    0.578905    0.000000   -0.000000   -0.000000
   28.999848    0.587835    0.587835    0.579929    0.000000   -0.000000   -0.000000
   29.029319    0.588835    0.588835    0.580950    0.000000   -0.000000   -0.000000
   29.058791    0.589830    0.589830    0.581965    0.000000   -0.000000   -0.000000
   29.088262    0.590820    0.590820    0.582977    0.000000   -0.000000   -0.000000
   29.117733    0.591807    0.591807    0.583984    0.000000   -0.000000   -0.000000
   29.147205    0.592789    0.592789    0.584987    0.000000   -0.000000   -0.000000
   29.176676    0.593767    0.593767    0.585985    0.000000   -0.000000   -0.000000
   29.206148    0.594741    0.594741    0.586979    0.000000   -0.000000   -0.000000
   29.235619    0.595711    0.595711    0.587970    0.000000   -0.000000   -0.000000
   29.265090    0.596677    0.596677    0.588956    0.000000   -0.000000   -0.000000
   29.294562    0.597639    0.597639    0.589937    0.000000   -0.000000   -0.000000
   29.324033    0.598597    0.598597    0.590915    0.000000   -0.000000   -0.000000
   29.353505    0.599551    0.599551    0.591889    0.000000   -0.000000   -0.000000
   29.382976    0.600500    0.600500    0.592859    0.000000   -0.000000   -0.000000
   29.412447    0.601446    0.601446    0.593824    0.000000   -0.000000   -0.000000
   29.441919    0.602388    0.602388    0.594786    0.000000   -0.000000   -0.000000
   29.471390    0.603327    0.603327    0.595744    0.000000   -0.000000   -0.000000
   29.500861    0.604261    0.604261    0.596698    0.000000   -0.000000   -0.000000
   29.530333    0.605192    0.605192    0.597648    0.000000   -0.000000   -0.000000
   29.559804    0.606118    0.606118    0.598594    0.000000   -0.000000   -0.000000
   29.589276    0.607041    0.607041    0.599537    0.000000   -0.000000   -0.000000
   29.618747    0.607961    0.607961    0.600475    0.000000   -0.000000   -0.000000
   29.648218    0.608876    0.608876    0.601410    0.000000   -0.000000   -0.000000
   29.677690    0.609788    0.609788    0.602341    0.000000   -0.000000   -0.000000
   29.707161    0.610697    0.610697    0.603268    0.000000   -0.000000   -0.000000
   29.736633    0.611601    0.611601    0.604192    0.000000   -0.000000   -0.000000
   29.766104    0.612502    0.612502    0.605112    0.000000   -0.000000   -0.000000
   29.795575    0.613400    0.613400    0.606028    0.000000   -0.000000   -0.000000
   29.825047    0.614294    0.614294    0.606941    0.000000   -0.000000   -0.000000
   29.854518    0.615184    0.615184    0.607850    0.000000   -0.000000   -0.000000
   29.883990    0.616071    0.616071    0.608756    0.000000   -0.000000   -0.000000
   29.913461    0.616955    0.616955    0.609658    0.000000   -0.000000   -0.000000
   29.942932    0.617835    0.617835    0.610556    0.000000   -0.000000   -0.000000
   29.972404    0.618712    0.618712    0.611451    0.000000   -0.000000   -0.000000
   30.001875    0.619585    0.619585    0.612343    0.000000   -0.000000   -0.000000
   30.031346    0.620455    0.620455    0.613231    0.000000   -0.000000   -0.000000
   30.060818    0.621321    0.621321    0.614116    0.000000   -0.000000   -0.000000
   30.090289    0.622184    0.622184    0.614997    0.000000   -0.000000   -0.000000
   30.119761    0.623044    0.623044    0.615875    0.000000   -0.000000   -0.000000
   30.149232    0.623901    0.623901    0.616749    0.000000   -0.000000   -0.000000
   30.178703    0.624754    0.624754    0.617620    0.000000   -0.000000   -0.000000
   30.208175    0.625604    0.625604    0.618488    0.000000   -0.000000   -0.000000
   30.237646    0.626451    0.626451    0.619353    0.000000   -0.000000   -0.000000
   30.267118    0.627294    0.627294    0.620214    0.000000   -0.000000   -0.000000
   30.296589    0.628135    0.628135    0.621072    0.000000   -0.000000   -0.000000
   30.326060    0.628972    0.628972    0.621927    0.000000   -0.000000   -0.000000
   30.355532    0.629806    0.629806    0.622778    0.000000   -0.000000   -0.000000
   30.385003    0.630637    0.630637    0.623626    0.000000   -0.000000   -0.000000
   30.414475    0.631465    0.631465    0.624471    0.000000   -0.000000   -0.000000
   30.443946    0.632289    0.632289    0.625313    0.000000   -0.000000   -0.000000
   30.473417    0.633111    0.633111    0.626152    0.000000   -0.000000   -0.000000
   30.502889    0.633929    0.633929    0.626988    0.000000   -0.000000   -0.000000
   30.532360    0.634745    0.634745    0.627820    0.000000   -0.000000   -0.000000
   30.561832    0.635557    0.635557    0.628650    0.000000   -0.000000   -0.000000
   30.591303    0.636367    0.636367    0.629476    0.000000   -0.000000   -0.000000
   30.620774    0.637173    0.637173    0.630300    0.000000   -0.000000   -0.000000
   30.650246    0.637977    0.637977    0.631120    0.000000   -0.000000   -0.000000
   30.679717    0.638777    0.638777    0.631937    0.000000   -0.000000   -0.000000
   30.709188    0.639575    0.639575    0.632752    0.000000   -0.000000   -0.000000
   30.738660    0.640370    0.640370    0.633563    0.000000   -0.000000   -0.000000
   30.768131    0.641162    0.641162    0.634371    0.000000   -0.000000   -0.000000
   30.797603    0.641951    0.641951    0.635177    0.000000   -0.000000   -0.000000
   30.827074    0.642737    0.642737    0.635979    0.000000   -0.000000   -0.000000
   30.856545    0.643520    0.643520    0.636779    0.000000   -0.000000   -0.000000
   30.886017    0.644300    0.644300    0.637575    0.000000   -0.000000   -0.000000
   30.915488    0.645078    0.645078    0.638369    0.000000   -0.000000   -0.000000
   30.944960    0.645853    0.645853    0.639160    0.000000   -0.000000   -0.000000
   30.974431    0.646625    0.646625    0.639948    0.000000   -0.000000   -0.000000
   31.003902    0.647394    0.647394    0.640733    0.000000   -0.000000   -0.000000
   31.033374    0.648160    0.648160    0.641516    0.000000   -0.000000   -0.000000
   31.062845    0.648924    0.648924    0.642295    0.000000   -0.000000   -0.000000
   31.092317    0.649685    0.649685    0.643072    0.000000   -0.000000   -0.000000
   31.121788    0.650443    0.650443    0.643846    0.000000   -0.000000   -0.000000
   31.151259    0.651199    0.651199    0.644618    0.000000   -0.000000   -0.000000
   31.180731    0.651952    0.651952    0.645386    0.000000   -0.000000   -0.000000
   31.210202    0.652702    0.652702    0.646152    0.000000   -0.000000   -0.000000
   31.239673    0.653450    0.653450    0.646915    0.000000   -0.000000   -0.000000
   31.269145    0.654195    0.654195    0.647676    0.000000   -0.000000   -0.000000
   31.298616    0.654937    0.654937    0.648433    0.000000   -0.000000   -0.000000
   31.328088    0.655677    0.655677    0.649188    0.000000   -0.000000   -0.000000
   31.357559    0.656414    0.656414    0.649941    0.000000   -0.000000   -0.000000
   31.387030    0.657149    0.657149    0.650691    0.000000   -0.000000   -0.000000
   31.416502    0.657881    0.657881    0.651438    0.000000   -0.000000   -0.000000
   31.445973    0.658610    0.658610    0.652183    0.000000   -0.000000   -0.000000
   31.475445    0.659337    0.659337    0.652925    0.000000   -0.000000   -0.000000
   31.504916    0.660062    0.660062    0.653664    0.000000   -0.000000   -0.000000
   31.534387    0.660783    0.660783    0.654401    0.000000   -0.000000   -0.000000
   31.563859    0.661503    0.661503    0.655135    0.000000   -0.000000   -0.000000
   31.593330    0.662220    0.662220    0.655867    0.000000   -0.000000   -0.000000
   31.622802    0.662934    0.662934    0.656596    0.000000   -0.000000   -0.000000
   31.652273    0.663646    0.663646    0.657323    0.000000   -0.000000   -0.000000
   31.681744    0.664356    0.664356    0.658047    0.000000   -0.000000   -0.000000
   31.711216    0.665063    0.665063    0.658769    0.000000   -0.000000   -0.000000
   31.740687    0.665768    0.665768    0.659488    0.000000   -0.000000   -0.000000
   31.770158    0.666470    0.666470    0.660205    0.000000   -0.000000   -0.000000
   31.799630    0.667170    0.667170    0.660919    0.000000   -0.000000   -0.000000
   31.829101    0.667867    0.667867    0.661631    0.000000   -0.000000   -0.000000
   31.858573    0.668562    0.668562    0.662341    0.000000   -0.000000   -0.000000
   31.888044    0.669255    0.669255    0.663048    0.000000   -0.000000   -0.000000
   31.917515    0.669946    0.669946    0.663752    0.000000   -0.000000   -0.000000
   31.946987    0.670634    0.670634    0.664455    0.000000   -0.000000   -0.000000
   31.976458    0.671320    0.671320    0.665155    0.000000   -0.000000   -0.000000
   32.005930    0.672003    0.672003    0.665852    0.000000   -0.000000   -0.000000
   32.035401    0.672684    0.672684    0.666547    0.000000   -0.000000   -0.000000
   32.064872    0.673363    0.673363    0.667240    0.000000   -0.000000   -0.000000
   32.094344    0.674040    0.674040    0.667931    0.000000   -0.000000   -0.000000
   32.123815    0.674714    0.674714    0.668619    0.000000   -0.000000   -0.000000
   32.153287    0.675386    0.675386    0.669305    0.000000   -0.000000   -0.000000
   32.182758    0.676056    0.676056    0.669989    0.000000   -0.000000   -0.000000
   32.212229    0.676724    0.676724    0.670670    0.000000   -0.000000   -0.000000
   32.241701    0.677389    0.677389    0.671349    0.000000   -0.000000   -0.000000
   32.271172    0.678053    0.678053    0.672026    0.000000   -0.000000   -0.000000
   32.300644    0.678714    0.678714    0.672701    0.000000   -0.000000   -0.000000
   32.330115    0.679372    0.679372    0.673373    0.000000   -0.000000   -0.000000
   32.359586    0.680029    0.680029    0.674043    0.000000   -0.000000   -0.000000
   32.389058    0.680684    0.680684    0.674711    0.000000   -0.000000   -0.000000
   32.418529    0.681336    0.681336    0.675377    0.000000   -0.000000   -0.000000
   32.448000    0.681986    0.681986    0.676040    0.000000   -0.000000   -0.000000
   32.477472    0.682634    0.682634    0.676702    0.000000   -0.000000   -0.000000
   32.506943    0.683280    0.683280    0.677361    0.000000   -0.000000   -0.000000
   32.536415    0.683924    0.683924    0.678018    0.000000   -0.000000   -0.000000
   32.565886    0.684566    0.684566    0.678673    0.000000   -0.000000   -0.000000
   32.595357    0.685205    0.685205    0.679325    0.000000   -0.000000   -0.000000
   32.624829    0.685843    0.685843    0.679976    0.000000   -0.000000   -0.000000
   32.654300    0.686478    0.686478    0.680625    0.000000   -0.000000   -0.000000
   32.683772    0.687112    0.687112    0.681271    0.000000   -0.000000   -0.000000
   32.713243    0.687743    0.687743    0.681915    0.000000   -0.000000   -0.000000
   32.742714    0.688373    0.688373    0.682557    0.000000   -0.000000   -0.000000
   32.772186    0.689000    0.689000    0.683198    0.000000   -0.000000   -0.000000
   32.801657    0.689625    0.689625    0.683836    0.000000   -0.000000   -0.000000
   32.831129    0.690249    0.690249    0.684472    0.000000   -0.000000   -0.000000
   32.860600    0.690870    0.690870    0.685106    0.000000   -0.000000   -0.000000
   32.890071    0.691489    0.691489    0.685737    0.000000   -0.000000   -0.000000
   32.919543    0.692106    0.692106    0.686367    0.000000   -0.000000   -0.000000
   32.949014    0.692722    0.692722    0.686995    0.000000   -0.000000   -0.000000
   32.978485    0.693335    0.693335    0.687621    0.000000   -0.000000   -0.000000
   33.007957    0.693946    0.693946    0.688245    0.000000   -0.000000   -0.000000
   33.037428    0.694556    0.694556    0.688867    0.000000   -0.000000   -0.000000
   33.066900    0.695163    0.695163    0.689487    0.000000   -0.000000   -0.000000
   33.096371    0.695769    0.695769    0.690105    0.000000   -0.000000   -0.000000
   33.125842    0.696373    0.696373    0.690721    0.000000   -0.000000   -0.000000
   33.155314    0.696974    0.696974    0.691335    0.000000   -0.000000   -0.000000
   33.184785    0.697574    0.697574    0.691947    0.000000   -0.000000   -0.000000
   33.214257    0.698172    0.698172    0.692557    0.000000   -0.000000   -0.000000
   33.243728    0.698768    0.698768    0.693165    0.000000   -0.000000   -0.000000
   33.273199    0.699363    0.699363    0.693771    0.000000   -0.000000   -0.000000
   33.302671    0.699955    0.699955    0.694376    0.000000   -0.000000   -0.000000
   33.332142    0.700545    0.700545    0.694978    0.000000   -0.000000   -0.000000
   33.361614    0.701134    0.701134    0.695579    0.000000   -0.000000   -0.000000
   33.391085    0.701721    0.701721    0.696177    0.000000   -0.000000   -0.000000
   33.420556    0.702306    0.702306    0.696774    0.000000   -0.000000   -0.000000
   33.450028    0.702889    0.702889    0.697369    0.000000   -0.000000   -0.000000
   33.479499    0.703470    0.703470    0.697962    0.000000   -0.000000   -0.000000
   33.508971    0.704050    0.704050    0.698553    0.000000   -0.000000   -0.000000
   33.538442    0.704627    0.704627    0.699143    0.000000   -0.000000   -0.000000
   33.567913    0.705203    0.705203    0.699730    0.000000   -0.000000   -0.000000
   33.597385    0.705778    0.705778    0.700316    0.000000   -0.000000   -0.000000
   33.626856    0.706350    0.706350    0.700900    0.000000   -0.000000   -0.000000
   33.656327    0.706920    0.706920    0.701482    0.000000   -0.000000   -0.000000
   33.685799    0.707489    0.707489    0.702063    0.000000   -0.000000   -0.000000
   33.715270    0.708056    0.708056    0.702641    0.000000   -0.000000   -0.000000
   33.744742    0.708622    0.708622    0.703218    0.000000   -0.000000   -0.000000
   33.774213    0.709185    0.709185    0.703793    0.000000   -0.000000   -0.000000
   33.803684    0.709747    0.709747    0.704366    0.000000   -0.000000   -0.000000
   33.833156    0.710307    0.710307    0.704937    0.000000   -0.000000   -0.000000
   33.862627    0.710866    0.710866    0.705507    0.000000   -0.000000   -0.000000
   33.892099    0.711422    0.711422    0.706075    0.000000   -0.000000   -0.000000
   33.921570    0.711978    0.711978    0.706641    0.000000   -0.000000   -0.000000
   33.951041    0.712531    0.712531    0.707206    0.000000   -0.000000   -0.000000
   33.980513    0.713082    0.713082    0.707769    0.000000   -0.000000   -0.000000
   34.009984    0.713632    0.713632    0.708330    0.000000   -0.000000   -0.000000
   34.039456    0.714181    0.714181    0.708889    0.000000   -0.000000   -0.000000
   34.068927    0.714727    0.714727    0.709447    0.000000   -0.000000   -0.000000
   34.098398    0.715272    0.715272    0.710003    0.000000   -0.000000   -0.000000
   34.127870    0.715816    0.715816    0.710557    0.000000   -0.000000   -0.000000
   34.157341    0.716357    0.716357    0.711110    0.000000   -0.000000   -0.000000
   34.186812    0.716898    0.716898    0.711660    0.000000   -0.000000   -0.000000
   34.216284    0.717436    0.717436    0.712210    0.000000   -0.000000   -0.000000
   34.245755    0.717973    0.717973    0.712757    0.000000   -0.000000   -0.000000
   34.275227    0.718508    0.718508    0.713303    0.000000   -0.000000   -0.000000
   34.304698    0.719042    0.719042    0.713848    0.000000   -0.000000   -0.000000
   34.334169    0.719574    0.719574    0.714390    0.000000   -0.000000   -0.000000
   34.363641    0.720104    0.720104    0.714931    0.000000   -0.000000   -0.000000
   34.393112    0.720633    0.720633    0.715471    0.000000   -0.000000   -0.000000
   34.422584    0.721160    0.721160    0.716009    0.000000   -0.000000   -0.000000
   34.452055    0.721686    0.721686    0.716545    0.000000   -0.000000   -0.000000
   34.481526    0.722210    0.722210    0.717080    0.000000   -0.000000   -0.000000
   34.510998    0.722733    0.722733    0.717613    0.000000   -0.000000   -0.000000
 
 The outermost node in the dielectric function lies at epsilon=  21.0


--------------------------------------------------------------------------------------------------------


    OPTICS:  cpu time      6.7445: real time      7.8513
    4ORBIT:  cpu time      0.0000: real time      0.0000



 total charge

# of ion       s       p       d       tot
------------------------------------------
    1        1.302   0.175   9.690  11.168
    2        1.302   0.175   9.690  11.168
    3        1.302   0.175   9.690  11.168
    4        1.302   0.175   9.690  11.168
    5        0.343   0.338   9.370  10.051
    6        0.343   0.338   9.370  10.051
    7        0.343   0.338   9.370  10.051
    8        0.343   0.338   9.370  10.051
    9        0.338   0.330   9.370  10.038
   10        0.338   0.330   9.370  10.038
   11        0.338   0.330   9.370  10.038
   12        0.338   0.330   9.370  10.038
   13        0.338   0.330   9.370  10.038
   14        0.338   0.330   9.370  10.038
   15        0.338   0.330   9.370  10.038
   16        0.338   0.330   9.370  10.038
   17        0.364   0.350   9.340  10.053
   18        0.364   0.350   9.340  10.053
   19        0.364   0.350   9.340  10.053
   20        0.364   0.350   9.340  10.053
   21        0.364   0.350   9.340  10.053
   22        0.364   0.350   9.340  10.053
   23        0.364   0.350   9.340  10.053
   24        0.364   0.350   9.340  10.053
   25        1.456   2.437   0.052   3.946
   26        1.456   2.437   0.052   3.946
   27        1.456   2.437   0.052   3.946
   28        1.456   2.437   0.052   3.946
   29        1.465   2.372   0.061   3.899
   30        1.465   2.372   0.061   3.899
   31        1.465   2.372   0.061   3.899
   32        1.465   2.372   0.061   3.899
   33        1.465   2.372   0.061   3.899
   34        1.465   2.372   0.061   3.899
   35        1.465   2.372   0.061   3.899
   36        1.465   2.372   0.061   3.899
--------------------------------------------------
tot         29.741  36.218 226.615 292.575
 
 BZINTS: Fermi energy:    5.798738;  344.000000 electrons
         Band energy:-0.300710E+01;  BLOECHL correction:    0.000000

 total amount of memory used by VASP MPI-rank0   111440. kBytes
=======================================================================

   base      :      30000. kBytes
   nonl-proj :       3055. kBytes
   fftplans  :       2327. kBytes
   grid      :       2748. kBytes
   one-center:         31. kBytes
   HF        :        129. kBytes
   nonlr-proj:      22659. kBytes
   wavefun   :       3661. kBytes
   fock_wrk  :      46830. kBytes
 
  
  
 General timing and accounting informations for this job:
 ========================================================
  
                  Total CPU time used (sec):     5715.460
                            User time (sec):     5099.483
                          System time (sec):      615.977
                         Elapsed time (sec):     5735.009
  
                   Maximum memory used (kb):      558688.
                   Average memory used (kb):          N/A
  
                          Minor page faults:      1266630
                          Major page faults:            0
                 Voluntary context switches:        38404
