<?xml version="1.0" encoding="ISO-8859-1"?>
<modeling>
 <generator>
  <i name="program" type="string">vasp </i>
  <i name="version" type="string">6.4.2  </i>
  <i name="subversion" type="string">20Jul23 (build Mar 15 2024 16:31:38) complex                          parallel </i>
  <i name="platform" type="string">LinuxIFC </i>
  <i name="date" type="string">2025 03 26 </i>
  <i name="time" type="string">18:10:10 </i>
 </generator>
 <incar>
  <i type="string" name="PREC">Accurate</i>
  <i type="string" name="ALGO">Normal</i>
  <i type="int" name="ISPIN">     2</i>
  <i type="int" name="NELM">   200</i>
  <i name="EDIFF">      0.00001000</i>
  <i type="int" name="NSW">     0</i>
  <i name="ENCUT">    680.00000000</i>
  <i name="ENAUG">   1360.00000000</i>
  <v name="MAGMOM">      0.60000000      0.60000000</v>
  <i type="logical" name="LREAL"> F  </i>
  <i type="int" name="ISMEAR">     0</i>
  <i name="SIGMA">      0.01000000</i>
  <i type="int" name="LMAXMIX">     4</i>
  <i type="logical" name="LWAVE"> T  </i>
  <i type="logical" name="LCHARG"> T  </i>
  <i type="logical" name="LVTOT"> T  </i>
  <i type="int" name="LORBIT">    11</i>
  <i type="logical" name="LELF"> F  </i>
  <i type="logical" name="LASPH"> T  </i>
  <i type="logical" name="LAECHG"> T  </i>
  <i name="HFSCREEN">      0.20000000</i>
  <i type="logical" name="LHFCALC"> T  </i>
  <i type="string" name="GGA">Pe</i>
  <i type="string" name="PRECFOCK">Fast</i>
  <i type="logical" name="LDAU"> F  </i>
  <i type="logical" name="LMIXTAU"> T  </i>
 </incar>
 <primitive_cell>
  <structure name="primitive_cell" >
   <crystal>
    <varray name="basis" >
     <v>       4.01975093       0.00000000       2.32080404 </v>
     <v>       1.33991663       3.78985854       2.32080404 </v>
     <v>       0.00000000       0.00000000       4.64161015 </v>
    </varray>
    <i name="volume">     70.71162285 </i>
    <varray name="rec_basis" >
     <v>       0.24877163      -0.08795401       0.00000000 </v>
     <v>       0.00000000       0.26386209       0.00000000 </v>
     <v>      -0.12438576      -0.08795400       0.21544248 </v>
    </varray>
   </crystal>
   <varray name="positions" >
    <v>       0.00000000       0.00000000       0.00000000 </v>
    <v>       0.25000000       0.25000000       0.25000000 </v>
   </varray>
  </structure>
  <varray name="primitive_index" >
   <v type="int" >        1 </v>
   <v type="int" >        2 </v>
  </varray>
 </primitive_cell>
 <kpoints>
  <varray name="kpointlist" >
   <v>       0.00000000       0.00000000       0.00000000 </v>
  </varray>
  <varray name="weights" >
   <v>       1.00000000 </v>
  </varray>
 </kpoints>
 <parameters>
  <separator name="general" >
   <i type="string" name="SYSTEM">unknown system</i>
   <i type="logical" name="LCOMPAT"> F  </i>
  </separator>
  <separator name="electronic" >
   <i type="string" name="PREC">accura</i>
   <i name="ENMAX">    680.00000000</i>
   <i name="ENAUG">   1360.00000000</i>
   <i name="EDIFF">      0.00001000</i>
   <i type="int" name="IALGO">    38</i>
   <i type="int" name="IWAVPR">    10</i>
   <i type="int" name="NBANDS">    24</i>
   <i type="int" name="NBANDSLOW">    -1</i>
   <i type="int" name="NBANDSHIGH">    -1</i>
   <i name="NELECT">     18.00000000</i>
   <i type="int" name="TURBO">     0</i>
   <i type="int" name="IRESTART">     0</i>
   <i type="int" name="NREBOOT">     0</i>
   <i type="int" name="NMIN">     0</i>
   <i name="EREF">      0.00000000</i>
   <separator name="electronic smearing" >
    <i type="int" name="ISMEAR">     0</i>
    <i name="SIGMA">      0.01000000</i>
    <i name="KSPACING">      0.50000000</i>
    <i type="logical" name="KGAMMA"> T  </i>
    <i type="logical" name="KBLOWUP"> T  </i>
   </separator>
   <separator name="electronic projectors" >
    <i type="logical" name="LREAL"> F  </i>
    <v name="ROPT">      0.00000000      0.00000000</v>
    <i type="int" name="LMAXPAW">  -100</i>
    <i type="int" name="LMAXMIX">     4</i>
    <i type="logical" name="NLSPLINE"> F  </i>
   </separator>
   <separator name="electronic startup" >
    <i type="int" name="ISTART">     0</i>
    <i type="int" name="ICHARG">     2</i>
    <i type="int" name="INIWAV">     1</i>
   </separator>
   <separator name="electronic spin" >
    <i type="int" name="ISPIN">     2</i>
    <i type="logical" name="LNONCOLLINEAR"> F  </i>
    <v name="MAGMOM">      0.60000000      0.60000000</v>
    <i name="NUPDOWN">     -1.00000000</i>
    <i type="logical" name="LSORBIT"> F  </i>
    <v name="SAXIS">      0.00000000      0.00000000      1.00000000</v>
    <i type="logical" name="LSPIRAL"> F  </i>
    <v name="QSPIRAL">      0.00000000      0.00000000      0.00000000</v>
    <i type="logical" name="LZEROZ"> F  </i>
   </separator>
   <separator name="electronic exchange-correlation" >
    <i type="logical" name="LASPH"> T  </i>
    <i type="logical" name="LMETAGGA"> F  </i>
   </separator>
   <separator name="electronic convergence" >
    <i type="int" name="NELM">   200</i>
    <i type="int" name="NELMDL">    -5</i>
    <i type="int" name="NELMIN">     2</i>
    <i name="ENINI">    680.00000000</i>
    <separator name="electronic convergence detail" >
     <i type="logical" name="LDIAG"> T  </i>
     <i type="logical" name="LSUBROT"> F  </i>
     <i name="WEIMIN">      0.00000000</i>
     <i name="EBREAK">      0.00000010</i>
     <i name="DEPER">      0.30000000</i>
     <i type="int" name="NRMM">     4</i>
     <i name="TIME">      0.40000000</i>
    </separator>
   </separator>
   <separator name="electronic mixer" >
    <i name="AMIX">      0.40000000</i>
    <i name="BMIX">      1.00000000</i>
    <i name="AMIN">      0.10000000</i>
    <i name="AMIX_MAG">      1.60000000</i>
    <i name="BMIX_MAG">      1.00000000</i>
    <separator name="electronic mixer details" >
     <i type="int" name="IMIX">     1</i>
     <i type="logical" name="MIXFIRST"> F  </i>
     <i type="int" name="MAXMIX">   -45</i>
     <i name="WC">    100.00000000</i>
     <i type="int" name="INIMIX">     1</i>
     <i type="int" name="MIXPRE">     1</i>
     <i type="int" name="MREMOVE">     5</i>
    </separator>
   </separator>
   <separator name="electronic dipolcorrection" >
    <i type="logical" name="LDIPOL"> F  </i>
    <i type="logical" name="LMONO"> F  </i>
    <i type="int" name="IDIPOL">     0</i>
    <i name="EPSILON">      1.00000000</i>
    <v name="DIPOL">   -100.00000000   -100.00000000   -100.00000000</v>
    <i name="EFIELD">      0.00000000</i>
   </separator>
  </separator>
  <separator name="grids" >
   <i type="int" name="NGX">    40</i>
   <i type="int" name="NGY">    40</i>
   <i type="int" name="NGZ">    40</i>
   <i type="int" name="NGXF">    80</i>
   <i type="int" name="NGYF">    80</i>
   <i type="int" name="NGZF">    80</i>
   <i type="logical" name="ADDGRID"> F  </i>
  </separator>
  <separator name="ionic" >
   <i type="int" name="NSW">     0</i>
   <i type="int" name="IBRION">    -1</i>
   <i type="int" name="MDALGO">     0</i>
   <i type="int" name="ISIF">     0</i>
   <i name="PSTRESS">      0.00000000</i>
   <i name="EDIFFG">      0.00010000</i>
   <i type="int" name="NFREE">     0</i>
   <i name="POTIM">      0.50000000</i>
   <i name="SMASS">     -3.00000000</i>
   <i name="SCALEE">      1.00000000</i>
  </separator>
  <separator name="ionic md" >
   <i name="TEBEG">      0.00010000</i>
   <i name="TEEND">      0.00010000</i>
   <i type="int" name="NBLOCK">     1</i>
   <i type="int" name="KBLOCK">     1</i>
   <i type="int" name="NPACO">   256</i>
   <i name="APACO">     10.00000000</i>
  </separator>
  <separator name="symmetry" >
   <i type="int" name="ISYM">     3</i>
   <i name="SYMPREC">      0.00001000</i>
  </separator>
  <separator name="dos" >
   <i type="int" name="LORBIT">    11</i>
   <v name="RWIGS">     -1.00000000     -1.00000000</v>
   <i type="int" name="NEDOS">   301</i>
   <i name="EMIN">     10.00000000</i>
   <i name="EMAX">    -10.00000000</i>
   <i name="EFERMI">      0.00000000</i>
  </separator>
  <separator name="writing" >
   <i type="int" name="NWRITE">     2</i>
   <i type="logical" name="LWAVE"> T  </i>
   <i type="logical" name="LDOWNSAMPLE"> F  </i>
   <i type="logical" name="LCHARG"> T  </i>
   <i type="logical" name="LPARD"> F  </i>
   <i type="logical" name="LVTOT"> T  </i>
   <i type="logical" name="LVHAR"> F  </i>
   <i type="logical" name="LELF"> F  </i>
   <i type="logical" name="LOPTICS"> F  </i>
   <v name="STM">      0.00000000      0.00000000      0.00000000      0.00000000      0.00000000      0.00000000      0.00000000</v>
  </separator>
  <separator name="performance" >
   <i type="int" name="NPAR">    12</i>
   <i type="int" name="NSIM">     4</i>
   <i type="int" name="NBLK">    -1</i>
   <i type="logical" name="LPLANE"> T  </i>
   <i type="logical" name="LSCALAPACK"> T  </i>
   <i type="logical" name="LSCAAWARE"> F  </i>
   <i type="logical" name="LSCALU"> F  </i>
   <i type="logical" name="LASYNC"> F  </i>
   <i type="logical" name="LORBITALREAL"> F  </i>
  </separator>
  <separator name="miscellaneous" >
   <i type="int" name="IDIOT">     3</i>
   <i type="int" name="PHON_NSTRUCT">    -1</i>
   <i type="logical" name="LMUSIC"> F  </i>
   <v name="POMASS">    112.41100000    127.60000000</v>
   <v name="DARWINR">      0.00000000      0.00000000</v>
   <v name="DARWINV">      1.00000000      1.00000000</v>
   <i type="logical" name="LCORR"> T  </i>
  </separator>
  <i type="logical" name="GGA_COMPAT"> T  </i>
  <i type="logical" name="LBERRY"> F  </i>
  <i type="int" name="ICORELEVEL">     0</i>
  <i type="logical" name="LDAU"> F  </i>
  <i type="int" name="I_CONSTRAINED_M">     0</i>
  <separator name="electronic exchange-correlation" >
   <i type="string" name="GGA">PE</i>
   <i type="int" name="VOSKOWN">     0</i>
   <i type="logical" name="LHFCALC"> T  </i>
   <i type="string" name="PRECFOCK">fast</i>
   <i type="logical" name="LSYMGRAD"> F  </i>
   <i type="logical" name="LHFONE"> F  </i>
   <i type="logical" name="LRHFCALC"> F  </i>
   <i type="logical" name="LTHOMAS"> F  </i>
   <i type="logical" name="LMODELHF"> F  </i>
   <i type="logical" name="LFOCKACE"> T  </i>
   <i name="ENCUT4O">     -1.00000000</i>
   <i type="int" name="EXXOEP">     0</i>
   <i type="int" name="FOURORBIT">     0</i>
   <i name="AEXX">      0.25000000</i>
   <i name="HFALPHA">     -1.00000000</i>
   <i name="MCALPHA">      0.00000000</i>
   <i name="ALDAX">      0.75000000</i>
   <i name="AGGAX">      0.75000000</i>
   <i name="ALDAC">      1.00000000</i>
   <i name="AGGAC">      1.00000000</i>
   <i type="int" name="NKREDX">     1</i>
   <i type="int" name="NKREDY">     1</i>
   <i type="int" name="NKREDZ">     1</i>
   <i type="logical" name="SHIFTRED"> F  </i>
   <i type="logical" name="ODDONLY"> F  </i>
   <i type="logical" name="EVENONLY"> F  </i>
   <i type="int" name="LMAXFOCK">     4</i>
   <i type="int" name="NMAXFOCKAE">     1</i>
   <i type="logical" name="LFOCKAEDFT"> F  </i>
   <i name="HFSCREEN">      0.20000000</i>
   <i name="HFSCREENC">      0.20000000</i>
   <i type="int" name="NBANDSGWLOW">     1</i>
  </separator>
  <separator name="vdW DFT" >
   <i type="logical" name="LUSE_VDW"> F  </i>
   <i type="int" name="IVDW_NL">     1</i>
   <i type="logical" name="LSPIN_VDW"> F  </i>
   <i name="Zab_VDW">     -0.84910000</i>
   <i name="PARAM1">      0.12340000</i>
   <i name="PARAM2">      1.00000000</i>
   <i name="PARAM3">      0.00000000</i>
  </separator>
  <separator name="model GW" >
   <i type="int" name="MODEL_GW">     0</i>
   <i name="MODEL_EPS0">     21.21348685</i>
   <i name="MODEL_ALPHA">      1.00000000</i>
  </separator>
  <separator name="linear response parameters" >
   <i type="logical" name="LEPSILON"> F  </i>
   <i type="logical" name="LRPA"> F  </i>
   <i type="logical" name="LNABLA"> F  </i>
   <i type="logical" name="LVEL"> F  </i>
   <i name="CSHIFT">      0.10000000</i>
   <i name="OMEGAMAX">     -1.00000000</i>
   <i name="DEG_THRESHOLD">      0.00200000</i>
   <i name="RTIME">     -0.10000000</i>
   <i name="WPLASMAI">      0.00000000</i>
   <v name="DFIELD">      0.00000000      0.00000000      0.00000000</v>
   <v name="WPLASMA">      0.00000000      0.00000000      0.00000000      0.00000000      0.00000000      0.00000000      0.00000000      0.00000000      0.00000000</v>
  </separator>
  <separator name="orbital magnetization" >
   <i type="logical" name="NUCIND"> F  </i>
   <v name="MAGPOS">      0.00000000      0.00000000      0.00000000</v>
   <i type="logical" name="LNICSALL"> T  </i>
   <i type="logical" name="ORBITALMAG"> F  </i>
   <i type="logical" name="LMAGBLOCH"> F  </i>
   <i type="logical" name="LCHIMAG"> F  </i>
   <i type="logical" name="LGAUGE"> T  </i>
   <i type="int" name="MAGATOM">     0</i>
   <v name="MAGDIPOL">      0.00000000      0.00000000      0.00000000</v>
   <v name="AVECCONST">      0.00000000      0.00000000      0.00000000</v>
  </separator>
  <separator name="response functions" >
   <i type="logical" name="LALL_IN_ONE"> F  </i>
   <i type="int" name="IALL_IN_ONE">    -1</i>
   <i type="int" name="NBANDS_WAVE">    -1</i>
   <i type="logical" name="LFINITE_TEMPERATURE"> F  </i>
   <i type="logical" name="LADDER"> F  </i>
   <i type="logical" name="LRPAFORCE"> F  </i>
   <i type="logical" name="LFXC"> F  </i>
   <i type="logical" name="LHARTREE"> T  </i>
   <i type="int" name="IBSE">     0</i>
   <v type="int" name="KPOINT">    -1     0     0     0</v>
   <i type="logical" name="LTCTC"> F  </i>
   <i type="logical" name="LTCTE"> F  </i>
   <i type="logical" name="LTETE"> F  </i>
   <i type="logical" name="LTRIPLET"> F  </i>
   <i type="logical" name="LFXCEPS"> F  </i>
   <i type="logical" name="LFXHEG"> F  </i>
   <i type="int" name="NATURALO">     2</i>
   <i type="logical" name="LHOLEGF"> F  </i>
   <i type="logical" name="L2ORDER"> F  </i>
   <i type="logical" name="LDMP1"> F  </i>
   <i type="logical" name="LMP2LT"> F  </i>
   <i type="logical" name="LSMP2LT"> F  </i>
   <i type="logical" name="LGWLF"> F  </i>
   <i name="ENCUTGW">     -1.60000002</i>
   <i name="ENCUTGWSOFT">     -1.60000002</i>
   <i name="ENCUTLF">     -1.00000000</i>
   <i type="logical" name="LESF_SPLINES"> F  </i>
   <i type="int" name="LMAXMP2">    -1</i>
   <i name="SCISSOR">      0.00000000</i>
   <i type="int" name="NOMEGA">     0</i>
   <i type="int" name="NOMEGAR">     0</i>
   <i type="int" name="NBANDSGW">    -1</i>
   <i type="int" name="NBANDSO">    -1</i>
   <i type="int" name="NBANDSV">    -1</i>
   <i type="int" name="NELMGW">     1</i>
   <i type="int" name="NELMHF">     1</i>
   <i type="int" name="DIM">     3</i>
   <i type="int" name="IESPILON">     4</i>
   <i type="int" name="ANTIRES">     0</i>
   <i name="OMEGAMAX">    -30.00000000</i>
   <i name="OMEGAMIN">    -30.00000000</i>
   <i name="OMEGATL">   -200.00000000</i>
   <i type="int" name="OMEGAGRID">     0</i>
   <i name="CSHIFT">     -0.10000000</i>
   <i type="logical" name="LSELFENERGY"> F  </i>
   <i type="logical" name="LSPECTRAL"> F  </i>
   <i type="logical" name="LSPECTRALGW"> F  </i>
   <i type="logical" name="LSINGLES"> F  </i>
   <i type="logical" name="LFERMIGW"> F  </i>
   <i type="logical" name="ODDONLYGW"> F  </i>
   <i type="logical" name="EVENONLYGW"> F  </i>
   <i type="int" name="NKREDLFX">     1</i>
   <i type="int" name="NKREDLFY">     1</i>
   <i type="int" name="NKREDLFZ">     1</i>
   <i type="int" name="MAXMEM">  2800</i>
   <i type="int" name="TELESCOPE">     0</i>
   <i type="int" name="NTAUPAR">    -1</i>
   <i type="int" name="NOMEGAPAR">    -1</i>
   <i name="DAMP_NEWTON">      0.80000001</i>
   <i name="LAMBDA">      1.00000000</i>
  </separator>
  <separator name="External order field" >
   <i name="OFIELD_KAPPA">      0.00000000</i>
   <v name="OFIELD_K">      0.00000000      0.00000000      0.00000000</v>
   <i name="OFIELD_Q6_NEAR">      0.00000000</i>
   <i name="OFIELD_Q6_FAR">      0.00000000</i>
   <i name="OFIELD_A">      0.00000000</i>
  </separator>
  <separator name="optional k-points parameters" >
   <i type="int" name="KPOINTS_OPT_MODE">     1</i>
   <i type="logical" name="LKPOINTS_OPT"> F  </i>
  </separator>
 </parameters>
 <atominfo>
  <atoms>       2 </atoms>
  <types>       2 </types>
  <array name="atoms" >
   <dimension dim="1">ion</dimension>
   <field type="string">element</field>
   <field type="int">atomtype</field>
   <set>
    <rc><c>Cd</c><c>   1</c></rc>
    <rc><c>Te</c><c>   2</c></rc>
   </set>
  </array>
  <array name="atomtypes" >
   <dimension dim="1">type</dimension>
   <field type="int">atomspertype</field>
   <field type="string">element</field>
   <field>mass</field>
   <field>valence</field>
   <field type="string">pseudopotential</field>
   <set>
    <rc><c>   1</c><c>Cd</c><c>    112.41100000</c><c>     12.00000000</c><c>  PAW_PBE Cd 06Sep2000                  </c></rc>
    <rc><c>   1</c><c>Te</c><c>    127.60000000</c><c>      6.00000000</c><c>  PAW_PBE Te 08Apr2002                  </c></rc>
   </set>
  </array>
 </atominfo>
 <structure name="initialpos" >
  <crystal>
   <varray name="basis" >
    <v>       4.01975093       0.00000000       2.32080404 </v>
    <v>       1.33991663       3.78985854       2.32080404 </v>
    <v>       0.00000000       0.00000000       4.64161015 </v>
   </varray>
   <i name="volume">     70.71162285 </i>
   <varray name="rec_basis" >
    <v>       0.24877163      -0.08795401       0.00000000 </v>
    <v>       0.00000000       0.26386209       0.00000000 </v>
    <v>      -0.12438576      -0.08795400       0.21544248 </v>
   </varray>
  </crystal>
  <varray name="positions" >
   <v>       0.00000000       0.00000000       0.00000000 </v>
   <v>       0.25000000       0.25000000       0.25000000 </v>
  </varray>
 </structure>
 <calculation>
  <scstep>
   <time name="dav">    0.13    0.14</time>
   <time name="total">    0.57    0.59</time>
   <energy>
    <i name="alphaZ">     48.32593859 </i>
    <i name="ewald">  -1031.85467228 </i>
    <i name="hartreedc">   -517.30053658 </i>
    <i name="XCdc">    -22.70731779 </i>
    <i name="pawpsdc">   1404.37530049 </i>
    <i name="pawaedc">  -3421.85055311 </i>
    <i name="eentropy">     -0.00000000 </i>
    <i name="bandstr">     19.56307882 </i>
    <i name="atom">   1514.28648168 </i>
    <i name="e_fr_energy">  -2007.16228018 </i>
    <i name="e_wo_entrp">  -2007.16228018 </i>
    <i name="e_0_energy">  -2007.16228018 </i>
   </energy>
  </scstep>
  <scstep>
   <time name="dav">    0.03    0.04</time>
   <time name="total">    0.03    0.04</time>
   <energy>
    <i name="e_fr_energy">  -2127.83707531 </i>
    <i name="e_wo_entrp">  -2127.83707531 </i>
    <i name="e_0_energy">  -2127.83707531 </i>
   </energy>
  </scstep>
  <scstep>
   <time name="dav">    0.02    0.04</time>
   <time name="total">    0.02    0.04</time>
   <energy>
    <i name="e_fr_energy">  -2131.69798184 </i>
    <i name="e_wo_entrp">  -2131.69798184 </i>
    <i name="e_0_energy">  -2131.69798184 </i>
   </energy>
  </scstep>
  <scstep>
   <time name="dav">    0.02    0.03</time>
   <time name="total">    0.02    0.03</time>
   <energy>
    <i name="e_fr_energy">  -2131.73399798 </i>
    <i name="e_wo_entrp">  -2131.73399798 </i>
    <i name="e_0_energy">  -2131.73399798 </i>
   </energy>
  </scstep>
  <scstep>
   <time name="dav">    0.08    0.08</time>
   <time name="total">    1.03    1.05</time>
   <energy>
    <i name="e_fr_energy">      1.53994068 </i>
    <i name="e_wo_entrp">      1.53994068 </i>
    <i name="e_0_energy">      1.53994068 </i>
   </energy>
  </scstep>
  <scstep>
   <time name="dav">    0.03    0.03</time>
   <time name="total">    0.96    0.97</time>
   <energy>
    <i name="e_fr_energy">      3.47301069 </i>
    <i name="e_wo_entrp">      3.47301069 </i>
    <i name="e_0_energy">      3.47301069 </i>
   </energy>
  </scstep>
  <scstep>
   <time name="dav">    0.03    0.03</time>
   <time name="total">    0.95    0.96</time>
   <energy>
    <i name="e_fr_energy">      3.70262572 </i>
    <i name="e_wo_entrp">      3.70262572 </i>
    <i name="e_0_energy">      3.70262572 </i>
   </energy>
  </scstep>
  <scstep>
   <time name="dav">    0.03    0.03</time>
   <time name="total">    0.95    0.97</time>
   <energy>
    <i name="e_fr_energy">      3.67845542 </i>
    <i name="e_wo_entrp">      3.67845542 </i>
    <i name="e_0_energy">      3.67845542 </i>
   </energy>
  </scstep>
  <scstep>
   <time name="dav">    0.03    0.03</time>
   <time name="total">    0.95    0.97</time>
   <energy>
    <i name="e_fr_energy">      3.66573517 </i>
    <i name="e_wo_entrp">      3.66573517 </i>
    <i name="e_0_energy">      3.66573517 </i>
   </energy>
  </scstep>
  <scstep>
   <time name="dav">    0.03    0.03</time>
   <time name="total">    0.95    0.96</time>
   <energy>
    <i name="e_fr_energy">      3.66252997 </i>
    <i name="e_wo_entrp">      3.66252997 </i>
    <i name="e_0_energy">      3.66252997 </i>
   </energy>
  </scstep>
  <scstep>
   <time name="dav">    0.03    0.03</time>
   <time name="total">    0.95    0.96</time>
   <energy>
    <i name="e_fr_energy">      3.66180690 </i>
    <i name="e_wo_entrp">      3.66180690 </i>
    <i name="e_0_energy">      3.66180690 </i>
   </energy>
  </scstep>
  <scstep>
   <time name="dav">    0.03    0.03</time>
   <time name="total">    0.94    0.96</time>
   <energy>
    <i name="e_fr_energy">      3.66149353 </i>
    <i name="e_wo_entrp">      3.66149353 </i>
    <i name="e_0_energy">      3.66149353 </i>
   </energy>
  </scstep>
  <scstep>
   <time name="dav">    0.02    0.02</time>
   <time name="total">    0.95    0.97</time>
   <energy>
    <i name="e_fr_energy">      3.66132351 </i>
    <i name="e_wo_entrp">      3.66132351 </i>
    <i name="e_0_energy">      3.66132351 </i>
   </energy>
  </scstep>
  <scstep>
   <time name="dav">    0.02    0.02</time>
   <time name="total">    0.95    0.96</time>
   <energy>
    <i name="e_fr_energy">      3.66123894 </i>
    <i name="e_wo_entrp">      3.66123894 </i>
    <i name="e_0_energy">      3.66123894 </i>
   </energy>
  </scstep>
  <scstep>
   <time name="dav">    0.03    0.03</time>
   <time name="total">    0.97    0.99</time>
   <energy>
    <i name="e_fr_energy">      3.66119788 </i>
    <i name="e_wo_entrp">      3.66119788 </i>
    <i name="e_0_energy">      3.66119788 </i>
   </energy>
  </scstep>
  <scstep>
   <time name="dav">    0.03    0.03</time>
   <time name="total">    0.97    0.98</time>
   <energy>
    <i name="e_fr_energy">      3.66117691 </i>
    <i name="e_wo_entrp">      3.66117691 </i>
    <i name="e_0_energy">      3.66117691 </i>
   </energy>
  </scstep>
  <scstep>
   <time name="dav">    0.03    0.03</time>
   <time name="total">    0.96    0.98</time>
   <energy>
    <i name="e_fr_energy">      3.66116397 </i>
    <i name="e_wo_entrp">      3.66116397 </i>
    <i name="e_0_energy">      3.66116397 </i>
   </energy>
  </scstep>
  <scstep>
   <time name="dav">    0.03    0.03</time>
   <time name="total">    0.97    0.99</time>
   <energy>
    <i name="e_fr_energy">      3.66115207 </i>
    <i name="e_wo_entrp">      3.66115207 </i>
    <i name="e_0_energy">      3.66115207 </i>
   </energy>
  </scstep>
  <scstep>
   <time name="dav">    0.03    0.03</time>
   <time name="total">    0.95    0.97</time>
   <energy>
    <i name="e_fr_energy">      3.66113580 </i>
    <i name="e_wo_entrp">      3.66113580 </i>
    <i name="e_0_energy">      3.66113580 </i>
   </energy>
  </scstep>
  <scstep>
   <time name="dav">    0.03    0.03</time>
   <time name="total">    0.98    1.00</time>
   <energy>
    <i name="e_fr_energy">      3.66110882 </i>
    <i name="e_wo_entrp">      3.66110882 </i>
    <i name="e_0_energy">      3.66110882 </i>
   </energy>
  </scstep>
  <scstep>
   <time name="dav">    0.03    0.03</time>
   <time name="total">    0.96    0.96</time>
   <energy>
    <i name="e_fr_energy">      3.66106128 </i>
    <i name="e_wo_entrp">      3.66106128 </i>
    <i name="e_0_energy">      3.66106128 </i>
   </energy>
  </scstep>
  <scstep>
   <time name="dav">    0.03    0.03</time>
   <time name="total">    0.95    0.96</time>
   <energy>
    <i name="e_fr_energy">      3.66097620 </i>
    <i name="e_wo_entrp">      3.66097620 </i>
    <i name="e_0_energy">      3.66097620 </i>
   </energy>
  </scstep>
  <scstep>
   <time name="dav">    0.03    0.03</time>
   <time name="total">    0.94    0.96</time>
   <energy>
    <i name="e_fr_energy">      3.66082339 </i>
    <i name="e_wo_entrp">      3.66082339 </i>
    <i name="e_0_energy">      3.66082339 </i>
   </energy>
  </scstep>
  <scstep>
   <time name="dav">    0.03    0.03</time>
   <time name="total">    0.95    0.96</time>
   <energy>
    <i name="e_fr_energy">      3.66054895 </i>
    <i name="e_wo_entrp">      3.66054895 </i>
    <i name="e_0_energy">      3.66054895 </i>
   </energy>
  </scstep>
  <scstep>
   <time name="dav">    0.03    0.03</time>
   <time name="total">    0.95    0.97</time>
   <energy>
    <i name="e_fr_energy">      3.66005669 </i>
    <i name="e_wo_entrp">      3.66005669 </i>
    <i name="e_0_energy">      3.66005669 </i>
   </energy>
  </scstep>
  <scstep>
   <time name="dav">    0.03    0.03</time>
   <time name="total">    0.95    0.97</time>
   <energy>
    <i name="e_fr_energy">      3.65917617 </i>
    <i name="e_wo_entrp">      3.65917617 </i>
    <i name="e_0_energy">      3.65917617 </i>
   </energy>
  </scstep>
  <scstep>
   <time name="dav">    0.03    0.03</time>
   <time name="total">    0.95    0.97</time>
   <energy>
    <i name="e_fr_energy">      3.65760896 </i>
    <i name="e_wo_entrp">      3.65760896 </i>
    <i name="e_0_energy">      3.65760896 </i>
   </energy>
  </scstep>
  <scstep>
   <time name="dav">    0.03    0.03</time>
   <time name="total">    0.95    0.97</time>
   <energy>
    <i name="e_fr_energy">      3.65484363 </i>
    <i name="e_wo_entrp">      3.65484363 </i>
    <i name="e_0_energy">      3.65484363 </i>
   </energy>
  </scstep>
  <scstep>
   <time name="dav">    0.03    0.03</time>
   <time name="total">    0.94    0.96</time>
   <energy>
    <i name="e_fr_energy">      3.65003872 </i>
    <i name="e_wo_entrp">      3.65003872 </i>
    <i name="e_0_energy">      3.65003872 </i>
   </energy>
  </scstep>
  <scstep>
   <time name="dav">    0.03    0.03</time>
   <time name="total">    0.95    0.96</time>
   <energy>
    <i name="e_fr_energy">      3.64191083 </i>
    <i name="e_wo_entrp">      3.64191083 </i>
    <i name="e_0_energy">      3.64191083 </i>
   </energy>
  </scstep>
  <scstep>
   <time name="dav">    0.03    0.03</time>
   <time name="total">    0.94    0.96</time>
   <energy>
    <i name="e_fr_energy">      3.62877283 </i>
    <i name="e_wo_entrp">      3.62877283 </i>
    <i name="e_0_energy">      3.62877283 </i>
   </energy>
  </scstep>
  <scstep>
   <time name="dav">    0.03    0.03</time>
   <time name="total">    0.95    0.97</time>
   <energy>
    <i name="e_fr_energy">      3.60905742 </i>
    <i name="e_wo_entrp">      3.60905742 </i>
    <i name="e_0_energy">      3.60905742 </i>
   </energy>
  </scstep>
  <scstep>
   <time name="dav">    0.03    0.03</time>
   <time name="total">    0.95    0.96</time>
   <energy>
    <i name="e_fr_energy">      3.58267378 </i>
    <i name="e_wo_entrp">      3.58267378 </i>
    <i name="e_0_energy">      3.58267378 </i>
   </energy>
  </scstep>
  <scstep>
   <time name="dav">    0.03    0.03</time>
   <time name="total">    0.95    0.96</time>
   <energy>
    <i name="e_fr_energy">      3.55271641 </i>
    <i name="e_wo_entrp">      3.55271641 </i>
    <i name="e_0_energy">      3.55271641 </i>
   </energy>
  </scstep>
  <scstep>
   <time name="dav">    0.03    0.03</time>
   <time name="total">    0.95    0.97</time>
   <energy>
    <i name="e_fr_energy">      3.52535798 </i>
    <i name="e_wo_entrp">      3.52535798 </i>
    <i name="e_0_energy">      3.52535798 </i>
   </energy>
  </scstep>
  <scstep>
   <time name="dav">    0.03    0.03</time>
   <time name="total">    0.95    0.97</time>
   <energy>
    <i name="e_fr_energy">      3.50634009 </i>
    <i name="e_wo_entrp">      3.50634009 </i>
    <i name="e_0_energy">      3.50634009 </i>
   </energy>
  </scstep>
  <scstep>
   <time name="dav">    0.03    0.03</time>
   <time name="total">    0.95    0.97</time>
   <energy>
    <i name="e_fr_energy">      3.49701255 </i>
    <i name="e_wo_entrp">      3.49701255 </i>
    <i name="e_0_energy">      3.49701255 </i>
   </energy>
  </scstep>
  <scstep>
   <time name="dav">    0.03    0.03</time>
   <time name="total">    0.95    0.97</time>
   <energy>
    <i name="e_fr_energy">      3.49435721 </i>
    <i name="e_wo_entrp">      3.49435721 </i>
    <i name="e_0_energy">      3.49435721 </i>
   </energy>
  </scstep>
  <scstep>
   <time name="dav">    0.03    0.03</time>
   <time name="total">    0.96    0.98</time>
   <energy>
    <i name="e_fr_energy">      3.49451521 </i>
    <i name="e_wo_entrp">      3.49451521 </i>
    <i name="e_0_energy">      3.49451521 </i>
   </energy>
  </scstep>
  <scstep>
   <time name="dav">    0.03    0.03</time>
   <time name="total">    0.96    0.98</time>
   <energy>
    <i name="e_fr_energy">      3.49514644 </i>
    <i name="e_wo_entrp">      3.49514644 </i>
    <i name="e_0_energy">      3.49514644 </i>
   </energy>
  </scstep>
  <scstep>
   <time name="dav">    0.03    0.03</time>
   <time name="total">    0.96    0.98</time>
   <energy>
    <i name="e_fr_energy">      3.49550608 </i>
    <i name="e_wo_entrp">      3.49550608 </i>
    <i name="e_0_energy">      3.49550608 </i>
   </energy>
  </scstep>
  <scstep>
   <time name="dav">    0.03    0.03</time>
   <time name="total">    0.96    0.98</time>
   <energy>
    <i name="e_fr_energy">      3.49559717 </i>
    <i name="e_wo_entrp">      3.49559717 </i>
    <i name="e_0_energy">      3.49559717 </i>
   </energy>
  </scstep>
  <scstep>
   <time name="dav">    0.03    0.03</time>
   <time name="total">    0.96    0.98</time>
   <energy>
    <i name="e_fr_energy">      3.49556967 </i>
    <i name="e_wo_entrp">      3.49556967 </i>
    <i name="e_0_energy">      3.49556967 </i>
   </energy>
  </scstep>
  <scstep>
   <time name="dav">    0.03    0.03</time>
   <time name="total">    0.96    0.98</time>
   <energy>
    <i name="e_fr_energy">      3.49552569 </i>
    <i name="e_wo_entrp">      3.49552569 </i>
    <i name="e_0_energy">      3.49552569 </i>
   </energy>
  </scstep>
  <scstep>
   <time name="dav">    0.03    0.03</time>
   <time name="total">    0.96    0.98</time>
   <energy>
    <i name="e_fr_energy">      3.49549644 </i>
    <i name="e_wo_entrp">      3.49549644 </i>
    <i name="e_0_energy">      3.49549644 </i>
   </energy>
  </scstep>
  <scstep>
   <time name="dav">    0.03    0.03</time>
   <time name="total">    0.96    0.98</time>
   <energy>
    <i name="e_fr_energy">      3.49548255 </i>
    <i name="e_wo_entrp">      3.49548255 </i>
    <i name="e_0_energy">      3.49548255 </i>
   </energy>
  </scstep>
  <scstep>
   <time name="dav">    0.03    0.03</time>
   <time name="total">    0.96    0.97</time>
   <energy>
    <i name="alphaZ">     48.32593859 </i>
    <i name="ewald">  -1031.85467228 </i>
    <i name="hartreedc">   -519.00677074 </i>
    <i name="XCdc">    -19.07234461 </i>
    <i name="pawpsdc">   4544.77909505 </i>
    <i name="pawaedc">  -4479.97111366 </i>
    <i name="eentropy">     -0.00000000 </i>
    <i name="bandstr">    -91.11728373 </i>
    <i name="atom">   1514.28648168 </i>
    <i name="e_fr_energy">      3.49547700 </i>
    <i name="e_wo_entrp">      3.49547700 </i>
    <i name="e_0_energy">      3.49547700 </i>
   </energy>
  </scstep>
  <structure>
   <crystal>
    <varray name="basis" >
     <v>       4.01975093       0.00000000       2.32080404 </v>
     <v>       1.33991663       3.78985854       2.32080404 </v>
     <v>       0.00000000       0.00000000       4.64161015 </v>
    </varray>
    <i name="volume">     70.71162285 </i>
    <varray name="rec_basis" >
     <v>       0.24877163      -0.08795401       0.00000000 </v>
     <v>       0.00000000       0.26386209       0.00000000 </v>
     <v>      -0.12438576      -0.08795400       0.21544248 </v>
    </varray>
   </crystal>
   <varray name="positions" >
    <v>       0.00000000       0.00000000       0.00000000 </v>
    <v>       0.25000000       0.25000000       0.25000000 </v>
   </varray>
  </structure>
  <varray name="forces" >
   <v>      -0.00000000      -0.00000000      -0.00000000 </v>
   <v>       0.00000000       0.00000000       0.00000000 </v>
  </varray>
  <energy>
   <i name="e_fr_energy">      3.49547700 </i>
   <i name="e_wo_entrp">      3.49547700 </i>
   <i name="e_0_energy">      3.49547700 </i>
  </energy>
  <time name="totalsc">   44.47   45.34</time>
  <eigenvalues>
   <array>
    <dimension dim="1">band</dimension>
    <dimension dim="2">kpoint</dimension>
    <dimension dim="3">spin</dimension>
    <field>eigene</field>
    <field>occ</field>
    <set>
     <set comment="spin 1">
      <set comment="kpoint 1">
       <r>   -9.2721    1.0000 </r>
       <r>   -8.4444    1.0000 </r>
       <r>   -8.4169    1.0000 </r>
       <r>   -8.4081    1.0000 </r>
       <r>   -8.2463    1.0000 </r>
       <r>   -8.1974    1.0000 </r>
       <r>    1.5465    1.0000 </r>
       <r>    1.9055    1.0000 </r>
       <r>    1.9756    1.0000 </r>
       <r>    3.9281    0.0000 </r>
       <r>    7.4273    0.0000 </r>
       <r>    7.5355    0.0000 </r>
       <r>    7.6492    0.0000 </r>
       <r>   10.0305    0.0000 </r>
       <r>   12.2734    0.0000 </r>
       <r>   12.4211    0.0000 </r>
       <r>   12.7231    0.0000 </r>
       <r>   12.7503    0.0000 </r>
       <r>   12.7923    0.0000 </r>
       <r>   14.5271    0.0000 </r>
       <r>   22.9668    0.0000 </r>
       <r>   23.0299    0.0000 </r>
       <r>   23.0761    0.0000 </r>
       <r>   23.9445    0.0000 </r>
      </set>
     </set>
     <set comment="spin 2">
      <set comment="kpoint 1">
       <r>   -9.2725    1.0000 </r>
       <r>   -8.4446    1.0000 </r>
       <r>   -8.4170    1.0000 </r>
       <r>   -8.4079    1.0000 </r>
       <r>   -8.2462    1.0000 </r>
       <r>   -8.1972    1.0000 </r>
       <r>    1.5438    1.0000 </r>
       <r>    1.9062    1.0000 </r>
       <r>    1.9758    1.0000 </r>
       <r>    3.9280    0.0000 </r>
       <r>    7.4271    0.0000 </r>
       <r>    7.5359    0.0000 </r>
       <r>    7.6497    0.0000 </r>
       <r>   10.0302    0.0000 </r>
       <r>   12.2736    0.0000 </r>
       <r>   12.4216    0.0000 </r>
       <r>   12.7226    0.0000 </r>
       <r>   12.7481    0.0000 </r>
       <r>   12.7937    0.0000 </r>
       <r>   14.5273    0.0000 </r>
       <r>   22.9661    0.0000 </r>
       <r>   23.0254    0.0000 </r>
       <r>   23.0805    0.0000 </r>
       <r>   23.9529    0.0000 </r>
      </set>
     </set>
    </set>
   </array>
  </eigenvalues>
  <separator name="orbital magnetization" >
   <v name="MAGDIPOLOUT">      0.00000000      0.00000000      0.00000000</v>
  </separator>
  <dos>
   <i name="efermi">      2.04073492 </i>
   <total>
    <array>
     <dimension dim="1">gridpoints</dimension>
     <dimension dim="2">spin</dimension>
     <field>energy</field>
     <field>total</field>
     <field>integrated</field>
     <set>
      <set comment="spin 1">
       <r>   -10.9338     0.0000     0.0000 </r>
       <r>   -10.8120     0.0000     0.0000 </r>
       <r>   -10.6902     0.0000     0.0000 </r>
       <r>   -10.5683     0.0000     0.0000 </r>
       <r>   -10.4465     0.0000     0.0000 </r>
       <r>   -10.3247     0.0000     0.0000 </r>
       <r>   -10.2029     0.0000     0.0000 </r>
       <r>   -10.0810     0.0000     0.0000 </r>
       <r>    -9.9592     0.0000     0.0000 </r>
       <r>    -9.8374     0.0000     0.0000 </r>
       <r>    -9.7156     0.0000     0.0000 </r>
       <r>    -9.5937     0.0000     0.0000 </r>
       <r>    -9.4719     0.0000     0.0000 </r>
       <r>    -9.3501     0.0000     0.0000 </r>
       <r>    -9.2282     8.2084     1.0000 </r>
       <r>    -9.1064     0.0000     1.0000 </r>
       <r>    -8.9846     0.0000     1.0000 </r>
       <r>    -8.8628     0.0000     1.0000 </r>
       <r>    -8.7409     0.0000     1.0000 </r>
       <r>    -8.6191     0.0000     1.0000 </r>
       <r>    -8.4973     0.0000     1.0000 </r>
       <r>    -8.3755    24.6251     4.0000 </r>
       <r>    -8.2536     1.2416     4.1513 </r>
       <r>    -8.1318     8.2084     6.0000 </r>
       <r>    -8.0100     0.0000     6.0000 </r>
       <r>    -7.8881     0.0000     6.0000 </r>
       <r>    -7.7663     0.0000     6.0000 </r>
       <r>    -7.6445     0.0000     6.0000 </r>
       <r>    -7.5227     0.0000     6.0000 </r>
       <r>    -7.4008     0.0000     6.0000 </r>
       <r>    -7.2790     0.0000     6.0000 </r>
       <r>    -7.1572     0.0000     6.0000 </r>
       <r>    -7.0354     0.0000     6.0000 </r>
       <r>    -6.9135     0.0000     6.0000 </r>
       <r>    -6.7917     0.0000     6.0000 </r>
       <r>    -6.6699     0.0000     6.0000 </r>
       <r>    -6.5481     0.0000     6.0000 </r>
       <r>    -6.4262     0.0000     6.0000 </r>
       <r>    -6.3044     0.0000     6.0000 </r>
       <r>    -6.1826     0.0000     6.0000 </r>
       <r>    -6.0607     0.0000     6.0000 </r>
       <r>    -5.9389     0.0000     6.0000 </r>
       <r>    -5.8171     0.0000     6.0000 </r>
       <r>    -5.6953     0.0000     6.0000 </r>
       <r>    -5.5734     0.0000     6.0000 </r>
       <r>    -5.4516     0.0000     6.0000 </r>
       <r>    -5.3298     0.0000     6.0000 </r>
       <r>    -5.2080     0.0000     6.0000 </r>
       <r>    -5.0861     0.0000     6.0000 </r>
       <r>    -4.9643     0.0000     6.0000 </r>
       <r>    -4.8425     0.0000     6.0000 </r>
       <r>    -4.7207     0.0000     6.0000 </r>
       <r>    -4.5988     0.0000     6.0000 </r>
       <r>    -4.4770     0.0000     6.0000 </r>
       <r>    -4.3552     0.0000     6.0000 </r>
       <r>    -4.2333     0.0000     6.0000 </r>
       <r>    -4.1115     0.0000     6.0000 </r>
       <r>    -3.9897     0.0000     6.0000 </r>
       <r>    -3.8679     0.0000     6.0000 </r>
       <r>    -3.7460     0.0000     6.0000 </r>
       <r>    -3.6242     0.0000     6.0000 </r>
       <r>    -3.5024     0.0000     6.0000 </r>
       <r>    -3.3806     0.0000     6.0000 </r>
       <r>    -3.2587     0.0000     6.0000 </r>
       <r>    -3.1369     0.0000     6.0000 </r>
       <r>    -3.0151     0.0000     6.0000 </r>
       <r>    -2.8933     0.0000     6.0000 </r>
       <r>    -2.7714     0.0000     6.0000 </r>
       <r>    -2.6496     0.0000     6.0000 </r>
       <r>    -2.5278     0.0000     6.0000 </r>
       <r>    -2.4059     0.0000     6.0000 </r>
       <r>    -2.2841     0.0000     6.0000 </r>
       <r>    -2.1623     0.0000     6.0000 </r>
       <r>    -2.0405     0.0000     6.0000 </r>
       <r>    -1.9186     0.0000     6.0000 </r>
       <r>    -1.7968     0.0000     6.0000 </r>
       <r>    -1.6750     0.0000     6.0000 </r>
       <r>    -1.5532     0.0000     6.0000 </r>
       <r>    -1.4313     0.0000     6.0000 </r>
       <r>    -1.3095     0.0000     6.0000 </r>
       <r>    -1.1877     0.0000     6.0000 </r>
       <r>    -1.0658     0.0000     6.0000 </r>
       <r>    -0.9440     0.0000     6.0000 </r>
       <r>    -0.8222     0.0000     6.0000 </r>
       <r>    -0.7004     0.0000     6.0000 </r>
       <r>    -0.5785     0.0000     6.0000 </r>
       <r>    -0.4567     0.0000     6.0000 </r>
       <r>    -0.3349     0.0000     6.0000 </r>
       <r>    -0.2131     0.0000     6.0000 </r>
       <r>    -0.0912     0.0000     6.0000 </r>
       <r>     0.0306     0.0000     6.0000 </r>
       <r>     0.1524     0.0000     6.0000 </r>
       <r>     0.2742     0.0000     6.0000 </r>
       <r>     0.3961     0.0000     6.0000 </r>
       <r>     0.5179     0.0000     6.0000 </r>
       <r>     0.6397     0.0000     6.0000 </r>
       <r>     0.7616     0.0000     6.0000 </r>
       <r>     0.8834     0.0000     6.0000 </r>
       <r>     1.0052     0.0000     6.0000 </r>
       <r>     1.1270     0.0000     6.0000 </r>
       <r>     1.2489     0.0000     6.0000 </r>
       <r>     1.3707     0.0000     6.0000 </r>
       <r>     1.4925     0.0000     6.0000 </r>
       <r>     1.6143     8.2084     7.0000 </r>
       <r>     1.7362     0.0000     7.0000 </r>
       <r>     1.8580     0.0000     7.0000 </r>
       <r>     1.9798    14.1534     8.7243 </r>
       <r>     2.1016     0.0000     9.0000 </r>
       <r>     2.2235     0.0000     9.0000 </r>
       <r>     2.3453     0.0000     9.0000 </r>
       <r>     2.4671     0.0000     9.0000 </r>
       <r>     2.5890     0.0000     9.0000 </r>
       <r>     2.7108     0.0000     9.0000 </r>
       <r>     2.8326     0.0000     9.0000 </r>
       <r>     2.9544     0.0000     9.0000 </r>
       <r>     3.0763     0.0000     9.0000 </r>
       <r>     3.1981     0.0000     9.0000 </r>
       <r>     3.3199     0.0000     9.0000 </r>
       <r>     3.4417     0.0000     9.0000 </r>
       <r>     3.5636     0.0000     9.0000 </r>
       <r>     3.6854     0.0000     9.0000 </r>
       <r>     3.8072     0.0000     9.0000 </r>
       <r>     3.9291     4.5261     9.5514 </r>
       <r>     4.0509     0.0000    10.0000 </r>
       <r>     4.1727     0.0000    10.0000 </r>
       <r>     4.2945     0.0000    10.0000 </r>
       <r>     4.4164     0.0000    10.0000 </r>
       <r>     4.5382     0.0000    10.0000 </r>
       <r>     4.6600     0.0000    10.0000 </r>
       <r>     4.7818     0.0000    10.0000 </r>
       <r>     4.9037     0.0000    10.0000 </r>
       <r>     5.0255     0.0000    10.0000 </r>
       <r>     5.1473     0.0000    10.0000 </r>
       <r>     5.2691     0.0000    10.0000 </r>
       <r>     5.3910     0.0000    10.0000 </r>
       <r>     5.5128     0.0000    10.0000 </r>
       <r>     5.6346     0.0000    10.0000 </r>
       <r>     5.7565     0.0000    10.0000 </r>
       <r>     5.8783     0.0000    10.0000 </r>
       <r>     6.0001     0.0000    10.0000 </r>
       <r>     6.1219     0.0000    10.0000 </r>
       <r>     6.2438     0.0000    10.0000 </r>
       <r>     6.3656     0.0000    10.0000 </r>
       <r>     6.4874     0.0000    10.0000 </r>
       <r>     6.6092     0.0000    10.0000 </r>
       <r>     6.7311     0.0000    10.0000 </r>
       <r>     6.8529     0.0000    10.0000 </r>
       <r>     6.9747     0.0000    10.0000 </r>
       <r>     7.0965     0.0000    10.0000 </r>
       <r>     7.2184     0.0000    10.0000 </r>
       <r>     7.3402     0.0000    10.0000 </r>
       <r>     7.4620     8.2084    11.0000 </r>
       <r>     7.5839     8.2084    12.0000 </r>
       <r>     7.7057     8.2084    13.0000 </r>
       <r>     7.8275     0.0000    13.0000 </r>
       <r>     7.9493     0.0000    13.0000 </r>
       <r>     8.0712     0.0000    13.0000 </r>
       <r>     8.1930     0.0000    13.0000 </r>
       <r>     8.3148     0.0000    13.0000 </r>
       <r>     8.4366     0.0000    13.0000 </r>
       <r>     8.5585     0.0000    13.0000 </r>
       <r>     8.6803     0.0000    13.0000 </r>
       <r>     8.8021     0.0000    13.0000 </r>
       <r>     8.9239     0.0000    13.0000 </r>
       <r>     9.0458     0.0000    13.0000 </r>
       <r>     9.1676     0.0000    13.0000 </r>
       <r>     9.2894     0.0000    13.0000 </r>
       <r>     9.4113     0.0000    13.0000 </r>
       <r>     9.5331     0.0000    13.0000 </r>
       <r>     9.6549     0.0000    13.0000 </r>
       <r>     9.7767     0.0000    13.0000 </r>
       <r>     9.8986     0.0000    13.0000 </r>
       <r>    10.0204     0.6245    13.0761 </r>
       <r>    10.1422     0.0000    14.0000 </r>
       <r>    10.2640     0.0000    14.0000 </r>
       <r>    10.3859     0.0000    14.0000 </r>
       <r>    10.5077     0.0000    14.0000 </r>
       <r>    10.6295     0.0000    14.0000 </r>
       <r>    10.7514     0.0000    14.0000 </r>
       <r>    10.8732     0.0000    14.0000 </r>
       <r>    10.9950     0.0000    14.0000 </r>
       <r>    11.1168     0.0000    14.0000 </r>
       <r>    11.2387     0.0000    14.0000 </r>
       <r>    11.3605     0.0000    14.0000 </r>
       <r>    11.4823     0.0000    14.0000 </r>
       <r>    11.6041     0.0000    14.0000 </r>
       <r>    11.7260     0.0000    14.0000 </r>
       <r>    11.8478     0.0000    14.0000 </r>
       <r>    11.9696     0.0000    14.0000 </r>
       <r>    12.0914     0.0000    14.0000 </r>
       <r>    12.2133     0.0000    14.0000 </r>
       <r>    12.3351     8.2084    15.0000 </r>
       <r>    12.4569     8.2084    16.0000 </r>
       <r>    12.5788     0.0000    16.0000 </r>
       <r>    12.7006     0.0059    16.0007 </r>
       <r>    12.8224    16.4167    19.0000 </r>
       <r>    12.9442     0.0000    19.0000 </r>
       <r>    13.0661     0.0000    19.0000 </r>
       <r>    13.1879     0.0000    19.0000 </r>
       <r>    13.3097     0.0000    19.0000 </r>
       <r>    13.4315     0.0000    19.0000 </r>
       <r>    13.5534     0.0000    19.0000 </r>
       <r>    13.6752     0.0000    19.0000 </r>
       <r>    13.7970     0.0000    19.0000 </r>
       <r>    13.9188     0.0000    19.0000 </r>
       <r>    14.0407     0.0000    19.0000 </r>
       <r>    14.1625     0.0000    19.0000 </r>
       <r>    14.2843     0.0000    19.0000 </r>
       <r>    14.4062     0.0000    19.0000 </r>
       <r>    14.5280     4.5078    19.5492 </r>
       <r>    14.6498     0.0000    20.0000 </r>
       <r>    14.7716     0.0000    20.0000 </r>
       <r>    14.8935     0.0000    20.0000 </r>
       <r>    15.0153     0.0000    20.0000 </r>
       <r>    15.1371     0.0000    20.0000 </r>
       <r>    15.2589     0.0000    20.0000 </r>
       <r>    15.3808     0.0000    20.0000 </r>
       <r>    15.5026     0.0000    20.0000 </r>
       <r>    15.6244     0.0000    20.0000 </r>
       <r>    15.7463     0.0000    20.0000 </r>
       <r>    15.8681     0.0000    20.0000 </r>
       <r>    15.9899     0.0000    20.0000 </r>
       <r>    16.1117     0.0000    20.0000 </r>
       <r>    16.2336     0.0000    20.0000 </r>
       <r>    16.3554     0.0000    20.0000 </r>
       <r>    16.4772     0.0000    20.0000 </r>
       <r>    16.5990     0.0000    20.0000 </r>
       <r>    16.7209     0.0000    20.0000 </r>
       <r>    16.8427     0.0000    20.0000 </r>
       <r>    16.9645     0.0000    20.0000 </r>
       <r>    17.0863     0.0000    20.0000 </r>
       <r>    17.2082     0.0000    20.0000 </r>
       <r>    17.3300     0.0000    20.0000 </r>
       <r>    17.4518     0.0000    20.0000 </r>
       <r>    17.5737     0.0000    20.0000 </r>
       <r>    17.6955     0.0000    20.0000 </r>
       <r>    17.8173     0.0000    20.0000 </r>
       <r>    17.9391     0.0000    20.0000 </r>
       <r>    18.0610     0.0000    20.0000 </r>
       <r>    18.1828     0.0000    20.0000 </r>
       <r>    18.3046     0.0000    20.0000 </r>
       <r>    18.4264     0.0000    20.0000 </r>
       <r>    18.5483     0.0000    20.0000 </r>
       <r>    18.6701     0.0000    20.0000 </r>
       <r>    18.7919     0.0000    20.0000 </r>
       <r>    18.9137     0.0000    20.0000 </r>
       <r>    19.0356     0.0000    20.0000 </r>
       <r>    19.1574     0.0000    20.0000 </r>
       <r>    19.2792     0.0000    20.0000 </r>
       <r>    19.4011     0.0000    20.0000 </r>
       <r>    19.5229     0.0000    20.0000 </r>
       <r>    19.6447     0.0000    20.0000 </r>
       <r>    19.7665     0.0000    20.0000 </r>
       <r>    19.8884     0.0000    20.0000 </r>
       <r>    20.0102     0.0000    20.0000 </r>
       <r>    20.1320     0.0000    20.0000 </r>
       <r>    20.2538     0.0000    20.0000 </r>
       <r>    20.3757     0.0000    20.0000 </r>
       <r>    20.4975     0.0000    20.0000 </r>
       <r>    20.6193     0.0000    20.0000 </r>
       <r>    20.7411     0.0000    20.0000 </r>
       <r>    20.8630     0.0000    20.0000 </r>
       <r>    20.9848     0.0000    20.0000 </r>
       <r>    21.1066     0.0000    20.0000 </r>
       <r>    21.2285     0.0000    20.0000 </r>
       <r>    21.3503     0.0000    20.0000 </r>
       <r>    21.4721     0.0000    20.0000 </r>
       <r>    21.5939     0.0000    20.0000 </r>
       <r>    21.7158     0.0000    20.0000 </r>
       <r>    21.8376     0.0000    20.0000 </r>
       <r>    21.9594     0.0000    20.0000 </r>
       <r>    22.0812     0.0000    20.0000 </r>
       <r>    22.2031     0.0000    20.0000 </r>
       <r>    22.3249     0.0000    20.0000 </r>
       <r>    22.4467     0.0000    20.0000 </r>
       <r>    22.5686     0.0000    20.0000 </r>
       <r>    22.6904     0.0000    20.0000 </r>
       <r>    22.8122     0.0000    20.0000 </r>
       <r>    22.9340     0.0000    20.0000 </r>
       <r>    23.0559     8.2243    22.0019 </r>
       <r>    23.1777     0.0000    23.0000 </r>
       <r>    23.2995     0.0000    23.0000 </r>
       <r>    23.4213     0.0000    23.0000 </r>
       <r>    23.5432     0.0000    23.0000 </r>
       <r>    23.6650     0.0000    23.0000 </r>
       <r>    23.7868     0.0000    23.0000 </r>
       <r>    23.9086     0.0000    23.0000 </r>
       <r>    24.0305     0.0000    24.0000 </r>
       <r>    24.1523     0.0000    24.0000 </r>
       <r>    24.2741     0.0000    24.0000 </r>
       <r>    24.3960     0.0000    24.0000 </r>
       <r>    24.5178     0.0000    24.0000 </r>
       <r>    24.6396     0.0000    24.0000 </r>
       <r>    24.7614     0.0000    24.0000 </r>
       <r>    24.8833     0.0000    24.0000 </r>
       <r>    25.0051     0.0000    24.0000 </r>
       <r>    25.1269     0.0000    24.0000 </r>
       <r>    25.2487     0.0000    24.0000 </r>
       <r>    25.3706     0.0000    24.0000 </r>
       <r>    25.4924     0.0000    24.0000 </r>
       <r>    25.6142     0.0000    24.0000 </r>
      </set>
      <set comment="spin 2">
       <r>   -10.9338     0.0000     0.0000 </r>
       <r>   -10.8120     0.0000     0.0000 </r>
       <r>   -10.6902     0.0000     0.0000 </r>
       <r>   -10.5683     0.0000     0.0000 </r>
       <r>   -10.4465     0.0000     0.0000 </r>
       <r>   -10.3247     0.0000     0.0000 </r>
       <r>   -10.2029     0.0000     0.0000 </r>
       <r>   -10.0810     0.0000     0.0000 </r>
       <r>    -9.9592     0.0000     0.0000 </r>
       <r>    -9.8374     0.0000     0.0000 </r>
       <r>    -9.7156     0.0000     0.0000 </r>
       <r>    -9.5937     0.0000     0.0000 </r>
       <r>    -9.4719     0.0000     0.0000 </r>
       <r>    -9.3501     0.0000     0.0000 </r>
       <r>    -9.2282     8.2084     1.0000 </r>
       <r>    -9.1064     0.0000     1.0000 </r>
       <r>    -8.9846     0.0000     1.0000 </r>
       <r>    -8.8628     0.0000     1.0000 </r>
       <r>    -8.7409     0.0000     1.0000 </r>
       <r>    -8.6191     0.0000     1.0000 </r>
       <r>    -8.4973     0.0000     1.0000 </r>
       <r>    -8.3755    24.6251     4.0000 </r>
       <r>    -8.2536     1.1963     4.1457 </r>
       <r>    -8.1318     8.2084     6.0000 </r>
       <r>    -8.0100     0.0000     6.0000 </r>
       <r>    -7.8881     0.0000     6.0000 </r>
       <r>    -7.7663     0.0000     6.0000 </r>
       <r>    -7.6445     0.0000     6.0000 </r>
       <r>    -7.5227     0.0000     6.0000 </r>
       <r>    -7.4008     0.0000     6.0000 </r>
       <r>    -7.2790     0.0000     6.0000 </r>
       <r>    -7.1572     0.0000     6.0000 </r>
       <r>    -7.0354     0.0000     6.0000 </r>
       <r>    -6.9135     0.0000     6.0000 </r>
       <r>    -6.7917     0.0000     6.0000 </r>
       <r>    -6.6699     0.0000     6.0000 </r>
       <r>    -6.5481     0.0000     6.0000 </r>
       <r>    -6.4262     0.0000     6.0000 </r>
       <r>    -6.3044     0.0000     6.0000 </r>
       <r>    -6.1826     0.0000     6.0000 </r>
       <r>    -6.0607     0.0000     6.0000 </r>
       <r>    -5.9389     0.0000     6.0000 </r>
       <r>    -5.8171     0.0000     6.0000 </r>
       <r>    -5.6953     0.0000     6.0000 </r>
       <r>    -5.5734     0.0000     6.0000 </r>
       <r>    -5.4516     0.0000     6.0000 </r>
       <r>    -5.3298     0.0000     6.0000 </r>
       <r>    -5.2080     0.0000     6.0000 </r>
       <r>    -5.0861     0.0000     6.0000 </r>
       <r>    -4.9643     0.0000     6.0000 </r>
       <r>    -4.8425     0.0000     6.0000 </r>
       <r>    -4.7207     0.0000     6.0000 </r>
       <r>    -4.5988     0.0000     6.0000 </r>
       <r>    -4.4770     0.0000     6.0000 </r>
       <r>    -4.3552     0.0000     6.0000 </r>
       <r>    -4.2333     0.0000     6.0000 </r>
       <r>    -4.1115     0.0000     6.0000 </r>
       <r>    -3.9897     0.0000     6.0000 </r>
       <r>    -3.8679     0.0000     6.0000 </r>
       <r>    -3.7460     0.0000     6.0000 </r>
       <r>    -3.6242     0.0000     6.0000 </r>
       <r>    -3.5024     0.0000     6.0000 </r>
       <r>    -3.3806     0.0000     6.0000 </r>
       <r>    -3.2587     0.0000     6.0000 </r>
       <r>    -3.1369     0.0000     6.0000 </r>
       <r>    -3.0151     0.0000     6.0000 </r>
       <r>    -2.8933     0.0000     6.0000 </r>
       <r>    -2.7714     0.0000     6.0000 </r>
       <r>    -2.6496     0.0000     6.0000 </r>
       <r>    -2.5278     0.0000     6.0000 </r>
       <r>    -2.4059     0.0000     6.0000 </r>
       <r>    -2.2841     0.0000     6.0000 </r>
       <r>    -2.1623     0.0000     6.0000 </r>
       <r>    -2.0405     0.0000     6.0000 </r>
       <r>    -1.9186     0.0000     6.0000 </r>
       <r>    -1.7968     0.0000     6.0000 </r>
       <r>    -1.6750     0.0000     6.0000 </r>
       <r>    -1.5532     0.0000     6.0000 </r>
       <r>    -1.4313     0.0000     6.0000 </r>
       <r>    -1.3095     0.0000     6.0000 </r>
       <r>    -1.1877     0.0000     6.0000 </r>
       <r>    -1.0658     0.0000     6.0000 </r>
       <r>    -0.9440     0.0000     6.0000 </r>
       <r>    -0.8222     0.0000     6.0000 </r>
       <r>    -0.7004     0.0000     6.0000 </r>
       <r>    -0.5785     0.0000     6.0000 </r>
       <r>    -0.4567     0.0000     6.0000 </r>
       <r>    -0.3349     0.0000     6.0000 </r>
       <r>    -0.2131     0.0000     6.0000 </r>
       <r>    -0.0912     0.0000     6.0000 </r>
       <r>     0.0306     0.0000     6.0000 </r>
       <r>     0.1524     0.0000     6.0000 </r>
       <r>     0.2742     0.0000     6.0000 </r>
       <r>     0.3961     0.0000     6.0000 </r>
       <r>     0.5179     0.0000     6.0000 </r>
       <r>     0.6397     0.0000     6.0000 </r>
       <r>     0.7616     0.0000     6.0000 </r>
       <r>     0.8834     0.0000     6.0000 </r>
       <r>     1.0052     0.0000     6.0000 </r>
       <r>     1.1270     0.0000     6.0000 </r>
       <r>     1.2489     0.0000     6.0000 </r>
       <r>     1.3707     0.0000     6.0000 </r>
       <r>     1.4925     0.0000     6.0000 </r>
       <r>     1.6143     8.2084     7.0000 </r>
       <r>     1.7362     0.0000     7.0000 </r>
       <r>     1.8580     0.0000     7.0000 </r>
       <r>     1.9798    14.0634     8.7133 </r>
       <r>     2.1016     0.0000     9.0000 </r>
       <r>     2.2235     0.0000     9.0000 </r>
       <r>     2.3453     0.0000     9.0000 </r>
       <r>     2.4671     0.0000     9.0000 </r>
       <r>     2.5890     0.0000     9.0000 </r>
       <r>     2.7108     0.0000     9.0000 </r>
       <r>     2.8326     0.0000     9.0000 </r>
       <r>     2.9544     0.0000     9.0000 </r>
       <r>     3.0763     0.0000     9.0000 </r>
       <r>     3.1981     0.0000     9.0000 </r>
       <r>     3.3199     0.0000     9.0000 </r>
       <r>     3.4417     0.0000     9.0000 </r>
       <r>     3.5636     0.0000     9.0000 </r>
       <r>     3.6854     0.0000     9.0000 </r>
       <r>     3.8072     0.0000     9.0000 </r>
       <r>     3.9291     4.5742     9.5573 </r>
       <r>     4.0509     0.0000    10.0000 </r>
       <r>     4.1727     0.0000    10.0000 </r>
       <r>     4.2945     0.0000    10.0000 </r>
       <r>     4.4164     0.0000    10.0000 </r>
       <r>     4.5382     0.0000    10.0000 </r>
       <r>     4.6600     0.0000    10.0000 </r>
       <r>     4.7818     0.0000    10.0000 </r>
       <r>     4.9037     0.0000    10.0000 </r>
       <r>     5.0255     0.0000    10.0000 </r>
       <r>     5.1473     0.0000    10.0000 </r>
       <r>     5.2691     0.0000    10.0000 </r>
       <r>     5.3910     0.0000    10.0000 </r>
       <r>     5.5128     0.0000    10.0000 </r>
       <r>     5.6346     0.0000    10.0000 </r>
       <r>     5.7565     0.0000    10.0000 </r>
       <r>     5.8783     0.0000    10.0000 </r>
       <r>     6.0001     0.0000    10.0000 </r>
       <r>     6.1219     0.0000    10.0000 </r>
       <r>     6.2438     0.0000    10.0000 </r>
       <r>     6.3656     0.0000    10.0000 </r>
       <r>     6.4874     0.0000    10.0000 </r>
       <r>     6.6092     0.0000    10.0000 </r>
       <r>     6.7311     0.0000    10.0000 </r>
       <r>     6.8529     0.0000    10.0000 </r>
       <r>     6.9747     0.0000    10.0000 </r>
       <r>     7.0965     0.0000    10.0000 </r>
       <r>     7.2184     0.0000    10.0000 </r>
       <r>     7.3402     0.0000    10.0000 </r>
       <r>     7.4620     8.2084    11.0000 </r>
       <r>     7.5839     8.2084    12.0000 </r>
       <r>     7.7057     8.2084    13.0000 </r>
       <r>     7.8275     0.0000    13.0000 </r>
       <r>     7.9493     0.0000    13.0000 </r>
       <r>     8.0712     0.0000    13.0000 </r>
       <r>     8.1930     0.0000    13.0000 </r>
       <r>     8.3148     0.0000    13.0000 </r>
       <r>     8.4366     0.0000    13.0000 </r>
       <r>     8.5585     0.0000    13.0000 </r>
       <r>     8.6803     0.0000    13.0000 </r>
       <r>     8.8021     0.0000    13.0000 </r>
       <r>     8.9239     0.0000    13.0000 </r>
       <r>     9.0458     0.0000    13.0000 </r>
       <r>     9.1676     0.0000    13.0000 </r>
       <r>     9.2894     0.0000    13.0000 </r>
       <r>     9.4113     0.0000    13.0000 </r>
       <r>     9.5331     0.0000    13.0000 </r>
       <r>     9.6549     0.0000    13.0000 </r>
       <r>     9.7767     0.0000    13.0000 </r>
       <r>     9.8986     0.0000    13.0000 </r>
       <r>    10.0204     0.6762    13.0824 </r>
       <r>    10.1422     0.0000    14.0000 </r>
       <r>    10.2640     0.0000    14.0000 </r>
       <r>    10.3859     0.0000    14.0000 </r>
       <r>    10.5077     0.0000    14.0000 </r>
       <r>    10.6295     0.0000    14.0000 </r>
       <r>    10.7514     0.0000    14.0000 </r>
       <r>    10.8732     0.0000    14.0000 </r>
       <r>    10.9950     0.0000    14.0000 </r>
       <r>    11.1168     0.0000    14.0000 </r>
       <r>    11.2387     0.0000    14.0000 </r>
       <r>    11.3605     0.0000    14.0000 </r>
       <r>    11.4823     0.0000    14.0000 </r>
       <r>    11.6041     0.0000    14.0000 </r>
       <r>    11.7260     0.0000    14.0000 </r>
       <r>    11.8478     0.0000    14.0000 </r>
       <r>    11.9696     0.0000    14.0000 </r>
       <r>    12.0914     0.0000    14.0000 </r>
       <r>    12.2133     0.0000    14.0000 </r>
       <r>    12.3351     8.2084    15.0000 </r>
       <r>    12.4569     8.2084    16.0000 </r>
       <r>    12.5788     0.0000    16.0000 </r>
       <r>    12.7006     0.0074    16.0009 </r>
       <r>    12.8224    16.4166    19.0000 </r>
       <r>    12.9442     0.0000    19.0000 </r>
       <r>    13.0661     0.0000    19.0000 </r>
       <r>    13.1879     0.0000    19.0000 </r>
       <r>    13.3097     0.0000    19.0000 </r>
       <r>    13.4315     0.0000    19.0000 </r>
       <r>    13.5534     0.0000    19.0000 </r>
       <r>    13.6752     0.0000    19.0000 </r>
       <r>    13.7970     0.0000    19.0000 </r>
       <r>    13.9188     0.0000    19.0000 </r>
       <r>    14.0407     0.0000    19.0000 </r>
       <r>    14.1625     0.0000    19.0000 </r>
       <r>    14.2843     0.0000    19.0000 </r>
       <r>    14.4062     0.0000    19.0000 </r>
       <r>    14.5280     4.4045    19.5366 </r>
       <r>    14.6498     0.0000    20.0000 </r>
       <r>    14.7716     0.0000    20.0000 </r>
       <r>    14.8935     0.0000    20.0000 </r>
       <r>    15.0153     0.0000    20.0000 </r>
       <r>    15.1371     0.0000    20.0000 </r>
       <r>    15.2589     0.0000    20.0000 </r>
       <r>    15.3808     0.0000    20.0000 </r>
       <r>    15.5026     0.0000    20.0000 </r>
       <r>    15.6244     0.0000    20.0000 </r>
       <r>    15.7463     0.0000    20.0000 </r>
       <r>    15.8681     0.0000    20.0000 </r>
       <r>    15.9899     0.0000    20.0000 </r>
       <r>    16.1117     0.0000    20.0000 </r>
       <r>    16.2336     0.0000    20.0000 </r>
       <r>    16.3554     0.0000    20.0000 </r>
       <r>    16.4772     0.0000    20.0000 </r>
       <r>    16.5990     0.0000    20.0000 </r>
       <r>    16.7209     0.0000    20.0000 </r>
       <r>    16.8427     0.0000    20.0000 </r>
       <r>    16.9645     0.0000    20.0000 </r>
       <r>    17.0863     0.0000    20.0000 </r>
       <r>    17.2082     0.0000    20.0000 </r>
       <r>    17.3300     0.0000    20.0000 </r>
       <r>    17.4518     0.0000    20.0000 </r>
       <r>    17.5737     0.0000    20.0000 </r>
       <r>    17.6955     0.0000    20.0000 </r>
       <r>    17.8173     0.0000    20.0000 </r>
       <r>    17.9391     0.0000    20.0000 </r>
       <r>    18.0610     0.0000    20.0000 </r>
       <r>    18.1828     0.0000    20.0000 </r>
       <r>    18.3046     0.0000    20.0000 </r>
       <r>    18.4264     0.0000    20.0000 </r>
       <r>    18.5483     0.0000    20.0000 </r>
       <r>    18.6701     0.0000    20.0000 </r>
       <r>    18.7919     0.0000    20.0000 </r>
       <r>    18.9137     0.0000    20.0000 </r>
       <r>    19.0356     0.0000    20.0000 </r>
       <r>    19.1574     0.0000    20.0000 </r>
       <r>    19.2792     0.0000    20.0000 </r>
       <r>    19.4011     0.0000    20.0000 </r>
       <r>    19.5229     0.0000    20.0000 </r>
       <r>    19.6447     0.0000    20.0000 </r>
       <r>    19.7665     0.0000    20.0000 </r>
       <r>    19.8884     0.0000    20.0000 </r>
       <r>    20.0102     0.0000    20.0000 </r>
       <r>    20.1320     0.0000    20.0000 </r>
       <r>    20.2538     0.0000    20.0000 </r>
       <r>    20.3757     0.0000    20.0000 </r>
       <r>    20.4975     0.0000    20.0000 </r>
       <r>    20.6193     0.0000    20.0000 </r>
       <r>    20.7411     0.0000    20.0000 </r>
       <r>    20.8630     0.0000    20.0000 </r>
       <r>    20.9848     0.0000    20.0000 </r>
       <r>    21.1066     0.0000    20.0000 </r>
       <r>    21.2285     0.0000    20.0000 </r>
       <r>    21.3503     0.0000    20.0000 </r>
       <r>    21.4721     0.0000    20.0000 </r>
       <r>    21.5939     0.0000    20.0000 </r>
       <r>    21.7158     0.0000    20.0000 </r>
       <r>    21.8376     0.0000    20.0000 </r>
       <r>    21.9594     0.0000    20.0000 </r>
       <r>    22.0812     0.0000    20.0000 </r>
       <r>    22.2031     0.0000    20.0000 </r>
       <r>    22.3249     0.0000    20.0000 </r>
       <r>    22.4467     0.0000    20.0000 </r>
       <r>    22.5686     0.0000    20.0000 </r>
       <r>    22.6904     0.0000    20.0000 </r>
       <r>    22.8122     0.0000    20.0000 </r>
       <r>    22.9340     0.0000    20.0000 </r>
       <r>    23.0559     8.2103    22.0002 </r>
       <r>    23.1777     0.0000    23.0000 </r>
       <r>    23.2995     0.0000    23.0000 </r>
       <r>    23.4213     0.0000    23.0000 </r>
       <r>    23.5432     0.0000    23.0000 </r>
       <r>    23.6650     0.0000    23.0000 </r>
       <r>    23.7868     0.0000    23.0000 </r>
       <r>    23.9086     0.0000    23.0000 </r>
       <r>    24.0305     8.2084    24.0000 </r>
       <r>    24.1523     0.0000    24.0000 </r>
       <r>    24.2741     0.0000    24.0000 </r>
       <r>    24.3960     0.0000    24.0000 </r>
       <r>    24.5178     0.0000    24.0000 </r>
       <r>    24.6396     0.0000    24.0000 </r>
       <r>    24.7614     0.0000    24.0000 </r>
       <r>    24.8833     0.0000    24.0000 </r>
       <r>    25.0051     0.0000    24.0000 </r>
       <r>    25.1269     0.0000    24.0000 </r>
       <r>    25.2487     0.0000    24.0000 </r>
       <r>    25.3706     0.0000    24.0000 </r>
       <r>    25.4924     0.0000    24.0000 </r>
       <r>    25.6142     0.0000    24.0000 </r>
      </set>
     </set>
    </array>
   </total>
   <partial>
    <array>
     <dimension dim="1">gridpoints</dimension>
     <dimension dim="2">spin</dimension>
     <dimension dim="3">ion</dimension>
     <field>energy</field>
     <field>    s</field>
     <field>   py</field>
     <field>   pz</field>
     <field>   px</field>
     <field>  dxy</field>
     <field>  dyz</field>
     <field>  dz2</field>
     <field>  dxz</field>
     <field>x2-y2</field>
     <set>
      <set comment="ion 1">
       <set comment="spin 1">
        <r>   -10.9338     0.0000     0.0000     0.0000     0.0000     0.0000     0.0000     0.0000     0.0000     0.0000 </r>
        <r>   -10.8120     0.0000     0.0000     0.0000     0.0000     0.0000     0.0000     0.0000     0.0000     0.0000 </r>
        <r>   -10.6902     0.0000     0.0000     0.0000     0.0000     0.0000     0.0000     0.0000     0.0000     0.0000 </r>
        <r>   -10.5683     0.0000     0.0000     0.0000     0.0000     0.0000     0.0000     0.0000     0.0000     0.0000 </r>
        <r>   -10.4465     0.0000     0.0000     0.0000     0.0000     0.0000     0.0000     0.0000     0.0000     0.0000 </r>
        <r>   -10.3247     0.0000     0.0000     0.0000     0.0000     0.0000     0.0000     0.0000     0.0000     0.0000 </r>
        <r>   -10.2029     0.0000     0.0000     0.0000     0.0000     0.0000     0.0000     0.0000     0.0000     0.0000 </r>
        <r>   -10.0810     0.0000     0.0000     0.0000     0.0000     0.0000     0.0000     0.0000     0.0000     0.0000 </r>
        <r>    -9.9592     0.0000     0.0000     0.0000     0.0000     0.0000     0.0000     0.0000     0.0000     0.0000 </r>
        <r>    -9.8374     0.0000     0.0000     0.0000     0.0000     0.0000     0.0000     0.0000     0.0000     0.0000 </r>
        <r>    -9.7156     0.0000     0.0000     0.0000     0.0000     0.0000     0.0000     0.0000     0.0000     0.0000 </r>
        <r>    -9.5937     0.0000     0.0000     0.0000     0.0000     0.0000     0.0000     0.0000     0.0000     0.0000 </r>
        <r>    -9.4719     0.0000     0.0000     0.0000     0.0000     0.0000     0.0000     0.0000     0.0000     0.0000 </r>
        <r>    -9.3501     0.0000     0.0000     0.0000     0.0000     0.0000     0.0000     0.0000     0.0000     0.0000 </r>
        <r>    -9.2282     0.5938     0.0000     0.0000     0.0000     0.0050     0.0050     0.0064     0.0061     0.0069 </r>
        <r>    -9.1064     0.0000     0.0000     0.0000     0.0000     0.0000     0.0000     0.0000     0.0000     0.0000 </r>
        <r>    -8.9846     0.0000     0.0000     0.0000     0.0000     0.0000     0.0000     0.0000     0.0000     0.0000 </r>
        <r>    -8.8628     0.0000     0.0000     0.0000     0.0000     0.0000     0.0000     0.0000     0.0000     0.0000 </r>
        <r>    -8.7409     0.0000     0.0000     0.0000     0.0000     0.0000     0.0000     0.0000     0.0000     0.0000 </r>
        <r>    -8.6191     0.0000     0.0000     0.0000     0.0000     0.0000     0.0000     0.0000     0.0000     0.0000 </r>
        <r>    -8.4973     0.0000     0.0000     0.0000     0.0000     0.0000     0.0000     0.0000     0.0000     0.0000 </r>
        <r>    -8.3755     0.0019     0.0011     0.0011     0.0011     4.1626     4.1626     4.8056     4.6770     5.0627 </r>
        <r>    -8.2536     0.0000     0.0000     0.0000     0.0000     0.2747     0.2747     0.2158     0.2276     0.1923 </r>
        <r>    -8.1318     0.0002     0.0000     0.0000     0.0000     1.7417     1.7417     1.4677     1.5225     1.3582 </r>
        <r>    -8.0100     0.0000     0.0000     0.0000     0.0000     0.0000     0.0000     0.0000     0.0000     0.0000 </r>
        <r>    -7.8881     0.0000     0.0000     0.0000     0.0000     0.0000     0.0000     0.0000     0.0000     0.0000 </r>
        <r>    -7.7663     0.0000     0.0000     0.0000     0.0000     0.0000     0.0000     0.0000     0.0000     0.0000 </r>
        <r>    -7.6445     0.0000     0.0000     0.0000     0.0000     0.0000     0.0000     0.0000     0.0000     0.0000 </r>
        <r>    -7.5227     0.0000     0.0000     0.0000     0.0000     0.0000     0.0000     0.0000     0.0000     0.0000 </r>
        <r>    -7.4008     0.0000     0.0000     0.0000     0.0000     0.0000     0.0000     0.0000     0.0000     0.0000 </r>
        <r>    -7.2790     0.0000     0.0000     0.0000     0.0000     0.0000     0.0000     0.0000     0.0000     0.0000 </r>
        <r>    -7.1572     0.0000     0.0000     0.0000     0.0000     0.0000     0.0000     0.0000     0.0000     0.0000 </r>
        <r>    -7.0354     0.0000     0.0000     0.0000     0.0000     0.0000     0.0000     0.0000     0.0000     0.0000 </r>
        <r>    -6.9135     0.0000     0.0000     0.0000     0.0000     0.0000     0.0000     0.0000     0.0000     0.0000 </r>
        <r>    -6.7917     0.0000     0.0000     0.0000     0.0000     0.0000     0.0000     0.0000     0.0000     0.0000 </r>
        <r>    -6.6699     0.0000     0.0000     0.0000     0.0000     0.0000     0.0000     0.0000     0.0000     0.0000 </r>
        <r>    -6.5481     0.0000     0.0000     0.0000     0.0000     0.0000     0.0000     0.0000     0.0000     0.0000 </r>
        <r>    -6.4262     0.0000     0.0000     0.0000     0.0000     0.0000     0.0000     0.0000     0.0000     0.0000 </r>
        <r>    -6.3044     0.0000     0.0000     0.0000     0.0000     0.0000     0.0000     0.0000     0.0000     0.0000 </r>
        <r>    -6.1826     0.0000     0.0000     0.0000     0.0000     0.0000     0.0000     0.0000     0.0000     0.0000 </r>
        <r>    -6.0607     0.0000     0.0000     0.0000     0.0000     0.0000     0.0000     0.0000     0.0000     0.0000 </r>
        <r>    -5.9389     0.0000     0.0000     0.0000     0.0000     0.0000     0.0000     0.0000     0.0000     0.0000 </r>
        <r>    -5.8171     0.0000     0.0000     0.0000     0.0000     0.0000     0.0000     0.0000     0.0000     0.0000 </r>
        <r>    -5.6953     0.0000     0.0000     0.0000     0.0000     0.0000     0.0000     0.0000     0.0000     0.0000 </r>
        <r>    -5.5734     0.0000     0.0000     0.0000     0.0000     0.0000     0.0000     0.0000     0.0000     0.0000 </r>
        <r>    -5.4516     0.0000     0.0000     0.0000     0.0000     0.0000     0.0000     0.0000     0.0000     0.0000 </r>
        <r>    -5.3298     0.0000     0.0000     0.0000     0.0000     0.0000     0.0000     0.0000     0.0000     0.0000 </r>
        <r>    -5.2080     0.0000     0.0000     0.0000     0.0000     0.0000     0.0000     0.0000     0.0000     0.0000 </r>
        <r>    -5.0861     0.0000     0.0000     0.0000     0.0000     0.0000     0.0000     0.0000     0.0000     0.0000 </r>
        <r>    -4.9643     0.0000     0.0000     0.0000     0.0000     0.0000     0.0000     0.0000     0.0000     0.0000 </r>
        <r>    -4.8425     0.0000     0.0000     0.0000     0.0000     0.0000     0.0000     0.0000     0.0000     0.0000 </r>
        <r>    -4.7207     0.0000     0.0000     0.0000     0.0000     0.0000     0.0000     0.0000     0.0000     0.0000 </r>
        <r>    -4.5988     0.0000     0.0000     0.0000     0.0000     0.0000     0.0000     0.0000     0.0000     0.0000 </r>
        <r>    -4.4770     0.0000     0.0000     0.0000     0.0000     0.0000     0.0000     0.0000     0.0000     0.0000 </r>
        <r>    -4.3552     0.0000     0.0000     0.0000     0.0000     0.0000     0.0000     0.0000     0.0000     0.0000 </r>
        <r>    -4.2333     0.0000     0.0000     0.0000     0.0000     0.0000     0.0000     0.0000     0.0000     0.0000 </r>
        <r>    -4.1115     0.0000     0.0000     0.0000     0.0000     0.0000     0.0000     0.0000     0.0000     0.0000 </r>
        <r>    -3.9897     0.0000     0.0000     0.0000     0.0000     0.0000     0.0000     0.0000     0.0000     0.0000 </r>
        <r>    -3.8679     0.0000     0.0000     0.0000     0.0000     0.0000     0.0000     0.0000     0.0000     0.0000 </r>
        <r>    -3.7460     0.0000     0.0000     0.0000     0.0000     0.0000     0.0000     0.0000     0.0000     0.0000 </r>
        <r>    -3.6242     0.0000     0.0000     0.0000     0.0000     0.0000     0.0000     0.0000     0.0000     0.0000 </r>
        <r>    -3.5024     0.0000     0.0000     0.0000     0.0000     0.0000     0.0000     0.0000     0.0000     0.0000 </r>
        <r>    -3.3806     0.0000     0.0000     0.0000     0.0000     0.0000     0.0000     0.0000     0.0000     0.0000 </r>
        <r>    -3.2587     0.0000     0.0000     0.0000     0.0000     0.0000     0.0000     0.0000     0.0000     0.0000 </r>
        <r>    -3.1369     0.0000     0.0000     0.0000     0.0000     0.0000     0.0000     0.0000     0.0000     0.0000 </r>
        <r>    -3.0151     0.0000     0.0000     0.0000     0.0000     0.0000     0.0000     0.0000     0.0000     0.0000 </r>
        <r>    -2.8933     0.0000     0.0000     0.0000     0.0000     0.0000     0.0000     0.0000     0.0000     0.0000 </r>
        <r>    -2.7714     0.0000     0.0000     0.0000     0.0000     0.0000     0.0000     0.0000     0.0000     0.0000 </r>
        <r>    -2.6496     0.0000     0.0000     0.0000     0.0000     0.0000     0.0000     0.0000     0.0000     0.0000 </r>
        <r>    -2.5278     0.0000     0.0000     0.0000     0.0000     0.0000     0.0000     0.0000     0.0000     0.0000 </r>
        <r>    -2.4059     0.0000     0.0000     0.0000     0.0000     0.0000     0.0000     0.0000     0.0000     0.0000 </r>
        <r>    -2.2841     0.0000     0.0000     0.0000     0.0000     0.0000     0.0000     0.0000     0.0000     0.0000 </r>
        <r>    -2.1623     0.0000     0.0000     0.0000     0.0000     0.0000     0.0000     0.0000     0.0000     0.0000 </r>
        <r>    -2.0405     0.0000     0.0000     0.0000     0.0000     0.0000     0.0000     0.0000     0.0000     0.0000 </r>
        <r>    -1.9186     0.0000     0.0000     0.0000     0.0000     0.0000     0.0000     0.0000     0.0000     0.0000 </r>
        <r>    -1.7968     0.0000     0.0000     0.0000     0.0000     0.0000     0.0000     0.0000     0.0000     0.0000 </r>
        <r>    -1.6750     0.0000     0.0000     0.0000     0.0000     0.0000     0.0000     0.0000     0.0000     0.0000 </r>
        <r>    -1.5532     0.0000     0.0000     0.0000     0.0000     0.0000     0.0000     0.0000     0.0000     0.0000 </r>
        <r>    -1.4313     0.0000     0.0000     0.0000     0.0000     0.0000     0.0000     0.0000     0.0000     0.0000 </r>
        <r>    -1.3095     0.0000     0.0000     0.0000     0.0000     0.0000     0.0000     0.0000     0.0000     0.0000 </r>
        <r>    -1.1877     0.0000     0.0000     0.0000     0.0000     0.0000     0.0000     0.0000     0.0000     0.0000 </r>
        <r>    -1.0658     0.0000     0.0000     0.0000     0.0000     0.0000     0.0000     0.0000     0.0000     0.0000 </r>
        <r>    -0.9440     0.0000     0.0000     0.0000     0.0000     0.0000     0.0000     0.0000     0.0000     0.0000 </r>
        <r>    -0.8222     0.0000     0.0000     0.0000     0.0000     0.0000     0.0000     0.0000     0.0000     0.0000 </r>
        <r>    -0.7004     0.0000     0.0000     0.0000     0.0000     0.0000     0.0000     0.0000     0.0000     0.0000 </r>
        <r>    -0.5785     0.0000     0.0000     0.0000     0.0000     0.0000     0.0000     0.0000     0.0000     0.0000 </r>
        <r>    -0.4567     0.0000     0.0000     0.0000     0.0000     0.0000     0.0000     0.0000     0.0000     0.0000 </r>
        <r>    -0.3349     0.0000     0.0000     0.0000     0.0000     0.0000     0.0000     0.0000     0.0000     0.0000 </r>
        <r>    -0.2131     0.0000     0.0000     0.0000     0.0000     0.0000     0.0000     0.0000     0.0000     0.0000 </r>
        <r>    -0.0912     0.0000     0.0000     0.0000     0.0000     0.0000     0.0000     0.0000     0.0000     0.0000 </r>
        <r>     0.0306     0.0000     0.0000     0.0000     0.0000     0.0000     0.0000     0.0000     0.0000     0.0000 </r>
        <r>     0.1524     0.0000     0.0000     0.0000     0.0000     0.0000     0.0000     0.0000     0.0000     0.0000 </r>
        <r>     0.2742     0.0000     0.0000     0.0000     0.0000     0.0000     0.0000     0.0000     0.0000     0.0000 </r>
        <r>     0.3961     0.0000     0.0000     0.0000     0.0000     0.0000     0.0000     0.0000     0.0000     0.0000 </r>
        <r>     0.5179     0.0000     0.0000     0.0000     0.0000     0.0000     0.0000     0.0000     0.0000     0.0000 </r>
        <r>     0.6397     0.0000     0.0000     0.0000     0.0000     0.0000     0.0000     0.0000     0.0000     0.0000 </r>
        <r>     0.7616     0.0000     0.0000     0.0000     0.0000     0.0000     0.0000     0.0000     0.0000     0.0000 </r>
        <r>     0.8834     0.0000     0.0000     0.0000     0.0000     0.0000     0.0000     0.0000     0.0000     0.0000 </r>
        <r>     1.0052     0.0000     0.0000     0.0000     0.0000     0.0000     0.0000     0.0000     0.0000     0.0000 </r>
        <r>     1.1270     0.0000     0.0000     0.0000     0.0000     0.0000     0.0000     0.0000     0.0000     0.0000 </r>
        <r>     1.2489     0.0000     0.0000     0.0000     0.0000     0.0000     0.0000     0.0000     0.0000     0.0000 </r>
        <r>     1.3707     0.0000     0.0000     0.0000     0.0000     0.0000     0.0000     0.0000     0.0000     0.0000 </r>
        <r>     1.4925     0.0000     0.0000     0.0000     0.0000     0.0000     0.0000     0.0000     0.0000     0.0000 </r>
        <r>     1.6143     0.7082     0.0647     0.0647     0.0647     0.0624     0.0624     0.0734     0.0712     0.0779 </r>
        <r>     1.7362     0.0000     0.0000     0.0000     0.0000     0.0000     0.0000     0.0000     0.0000     0.0000 </r>
        <r>     1.8580     0.0000     0.0000     0.0000     0.0000     0.0000     0.0000     0.0000     0.0000     0.0000 </r>
        <r>     1.9798     0.0027     0.1622     0.1622     0.1622     0.1393     0.1393     0.1707     0.1644     0.1832 </r>
        <r>     2.1016     0.0000     0.0000     0.0000     0.0000     0.0000     0.0000     0.0000     0.0000     0.0000 </r>
        <r>     2.2235     0.0000     0.0000     0.0000     0.0000     0.0000     0.0000     0.0000     0.0000     0.0000 </r>
        <r>     2.3453     0.0000     0.0000     0.0000     0.0000     0.0000     0.0000     0.0000     0.0000     0.0000 </r>
        <r>     2.4671     0.0000     0.0000     0.0000     0.0000     0.0000     0.0000     0.0000     0.0000     0.0000 </r>
        <r>     2.5890     0.0000     0.0000     0.0000     0.0000     0.0000     0.0000     0.0000     0.0000     0.0000 </r>
        <r>     2.7108     0.0000     0.0000     0.0000     0.0000     0.0000     0.0000     0.0000     0.0000     0.0000 </r>
        <r>     2.8326     0.0000     0.0000     0.0000     0.0000     0.0000     0.0000     0.0000     0.0000     0.0000 </r>
[...]
        <r>    20.3757     0.0000     0.0000     0.0000     0.0000     0.0000     0.0000     0.0000     0.0000     0.0000 </r>
        <r>    20.4975     0.0000     0.0000     0.0000     0.0000     0.0000     0.0000     0.0000     0.0000     0.0000 </r>
        <r>    20.6193     0.0000     0.0000     0.0000     0.0000     0.0000     0.0000     0.0000     0.0000     0.0000 </r>
        <r>    20.7411     0.0000     0.0000     0.0000     0.0000     0.0000     0.0000     0.0000     0.0000     0.0000 </r>
        <r>    20.8630     0.0000     0.0000     0.0000     0.0000     0.0000     0.0000     0.0000     0.0000     0.0000 </r>
        <r>    20.9848     0.0000     0.0000     0.0000     0.0000     0.0000     0.0000     0.0000     0.0000     0.0000 </r>
        <r>    21.1066     0.0000     0.0000     0.0000     0.0000     0.0000     0.0000     0.0000     0.0000     0.0000 </r>
        <r>    21.2285     0.0000     0.0000     0.0000     0.0000     0.0000     0.0000     0.0000     0.0000     0.0000 </r>
        <r>    21.3503     0.0000     0.0000     0.0000     0.0000     0.0000     0.0000     0.0000     0.0000     0.0000 </r>
        <r>    21.4721     0.0000     0.0000     0.0000     0.0000     0.0000     0.0000     0.0000     0.0000     0.0000 </r>
        <r>    21.5939     0.0000     0.0000     0.0000     0.0000     0.0000     0.0000     0.0000     0.0000     0.0000 </r>
        <r>    21.7158     0.0000     0.0000     0.0000     0.0000     0.0000     0.0000     0.0000     0.0000     0.0000 </r>
        <r>    21.8376     0.0000     0.0000     0.0000     0.0000     0.0000     0.0000     0.0000     0.0000     0.0000 </r>
        <r>    21.9594     0.0000     0.0000     0.0000     0.0000     0.0000     0.0000     0.0000     0.0000     0.0000 </r>
        <r>    22.0812     0.0000     0.0000     0.0000     0.0000     0.0000     0.0000     0.0000     0.0000     0.0000 </r>
        <r>    22.2031     0.0000     0.0000     0.0000     0.0000     0.0000     0.0000     0.0000     0.0000     0.0000 </r>
        <r>    22.3249     0.0000     0.0000     0.0000     0.0000     0.0000     0.0000     0.0000     0.0000     0.0000 </r>
        <r>    22.4467     0.0000     0.0000     0.0000     0.0000     0.0000     0.0000     0.0000     0.0000     0.0000 </r>
        <r>    22.5686     0.0000     0.0000     0.0000     0.0000     0.0000     0.0000     0.0000     0.0000     0.0000 </r>
        <r>    22.6904     0.0000     0.0000     0.0000     0.0000     0.0000     0.0000     0.0000     0.0000     0.0000 </r>
        <r>    22.8122     0.0000     0.0000     0.0000     0.0000     0.0000     0.0000     0.0000     0.0000     0.0000 </r>
        <r>    22.9340     0.0000     0.0000     0.0000     0.0000     0.0000     0.0000     0.0000     0.0000     0.0000 </r>
        <r>    23.0559     0.0000     0.0003     0.0003     0.0003     0.0123     0.0123     0.0170     0.0161     0.0189 </r>
        <r>    23.1777     0.0000     0.0000     0.0000     0.0000     0.0000     0.0000     0.0000     0.0000     0.0000 </r>
        <r>    23.2995     0.0000     0.0000     0.0000     0.0000     0.0000     0.0000     0.0000     0.0000     0.0000 </r>
        <r>    23.4213     0.0000     0.0000     0.0000     0.0000     0.0000     0.0000     0.0000     0.0000     0.0000 </r>
        <r>    23.5432     0.0000     0.0000     0.0000     0.0000     0.0000     0.0000     0.0000     0.0000     0.0000 </r>
        <r>    23.6650     0.0000     0.0000     0.0000     0.0000     0.0000     0.0000     0.0000     0.0000     0.0000 </r>
        <r>    23.7868     0.0000     0.0000     0.0000     0.0000     0.0000     0.0000     0.0000     0.0000     0.0000 </r>
        <r>    23.9086     0.0000     0.0000     0.0000     0.0000     0.0000     0.0000     0.0000     0.0000     0.0000 </r>
        <r>    24.0305     0.0001     0.2841     0.2841     0.2841     0.4714     0.4714     0.7639     0.7054     0.8809 </r>
        <r>    24.1523     0.0000     0.0000     0.0000     0.0000     0.0000     0.0000     0.0000     0.0000     0.0000 </r>
        <r>    24.2741     0.0000     0.0000     0.0000     0.0000     0.0000     0.0000     0.0000     0.0000     0.0000 </r>
        <r>    24.3960     0.0000     0.0000     0.0000     0.0000     0.0000     0.0000     0.0000     0.0000     0.0000 </r>
        <r>    24.5178     0.0000     0.0000     0.0000     0.0000     0.0000     0.0000     0.0000     0.0000     0.0000 </r>
        <r>    24.6396     0.0000     0.0000     0.0000     0.0000     0.0000     0.0000     0.0000     0.0000     0.0000 </r>
        <r>    24.7614     0.0000     0.0000     0.0000     0.0000     0.0000     0.0000     0.0000     0.0000     0.0000 </r>
        <r>    24.8833     0.0000     0.0000     0.0000     0.0000     0.0000     0.0000     0.0000     0.0000     0.0000 </r>
        <r>    25.0051     0.0000     0.0000     0.0000     0.0000     0.0000     0.0000     0.0000     0.0000     0.0000 </r>
        <r>    25.1269     0.0000     0.0000     0.0000     0.0000     0.0000     0.0000     0.0000     0.0000     0.0000 </r>
        <r>    25.2487     0.0000     0.0000     0.0000     0.0000     0.0000     0.0000     0.0000     0.0000     0.0000 </r>
        <r>    25.3706     0.0000     0.0000     0.0000     0.0000     0.0000     0.0000     0.0000     0.0000     0.0000 </r>
        <r>    25.4924     0.0000     0.0000     0.0000     0.0000     0.0000     0.0000     0.0000     0.0000     0.0000 </r>
        <r>    25.6142     0.0000     0.0000     0.0000     0.0000     0.0000     0.0000     0.0000     0.0000     0.0000 </r>
       </set>
      </set>
     </set>
    </array>
   </partial>
  </dos>
  <projected>
   <eigenvalues>
    <array>
     <dimension dim="1">band</dimension>
     <dimension dim="2">kpoint</dimension>
     <dimension dim="3">spin</dimension>
     <field>eigene</field>
     <field>occ</field>
     <set>
      <set comment="spin 1">
       <set comment="kpoint 1">
        <r>   -9.2721    1.0000 </r>
        <r>   -8.4444    1.0000 </r>
        <r>   -8.4169    1.0000 </r>
        <r>   -8.4081    1.0000 </r>
        <r>   -8.2463    1.0000 </r>
        <r>   -8.1974    1.0000 </r>
        <r>    1.5465    1.0000 </r>
        <r>    1.9055    1.0000 </r>
        <r>    1.9756    1.0000 </r>
        <r>    3.9281    0.0000 </r>
        <r>    7.4273    0.0000 </r>
        <r>    7.5355    0.0000 </r>
        <r>    7.6492    0.0000 </r>
        <r>   10.0305    0.0000 </r>
        <r>   12.2734    0.0000 </r>
        <r>   12.4211    0.0000 </r>
        <r>   12.7231    0.0000 </r>
        <r>   12.7503    0.0000 </r>
        <r>   12.7923    0.0000 </r>
        <r>   14.5271    0.0000 </r>
        <r>   22.9668    0.0000 </r>
        <r>   23.0299    0.0000 </r>
        <r>   23.0761    0.0000 </r>
        <r>   23.9445    0.0000 </r>
       </set>
      </set>
      <set comment="spin 2">
       <set comment="kpoint 1">
        <r>   -9.2725    1.0000 </r>
        <r>   -8.4446    1.0000 </r>
        <r>   -8.4170    1.0000 </r>
        <r>   -8.4079    1.0000 </r>
        <r>   -8.2462    1.0000 </r>
        <r>   -8.1972    1.0000 </r>
        <r>    1.5438    1.0000 </r>
        <r>    1.9062    1.0000 </r>
        <r>    1.9758    1.0000 </r>
        <r>    3.9280    0.0000 </r>
        <r>    7.4271    0.0000 </r>
        <r>    7.5359    0.0000 </r>
        <r>    7.6497    0.0000 </r>
        <r>   10.0302    0.0000 </r>
        <r>   12.2736    0.0000 </r>
        <r>   12.4216    0.0000 </r>
        <r>   12.7226    0.0000 </r>
        <r>   12.7481    0.0000 </r>
        <r>   12.7937    0.0000 </r>
        <r>   14.5273    0.0000 </r>
        <r>   22.9661    0.0000 </r>
        <r>   23.0254    0.0000 </r>
        <r>   23.0805    0.0000 </r>
        <r>   23.9529    0.0000 </r>
       </set>
      </set>
     </set>
    </array>
   </eigenvalues>
   <array>
    <dimension dim="1">ion</dimension>
    <dimension dim="2">band</dimension>
    <dimension dim="3">kpoint</dimension>
    <dimension dim="4">spin</dimension>
    <field>    s</field>
    <field>   py</field>
    <field>   pz</field>
    <field>   px</field>
    <field>  dxy</field>
    <field>  dyz</field>
    <field>  dz2</field>
    <field>  dxz</field>
    <field>x2-y2</field>
    <set>
     <set comment="spin1">
      <set comment="kpoint 1">
       <set comment="band 1">
        <r>  0.0723  0.0000  0.0000  0.0000  0.0001  0.0000  0.0034  0.0001  0.0000 </r>
        <r>  0.5222  0.0006  0.0000  0.0008  0.0000  0.0000  0.0000  0.0000  0.0000 </r>
       </set>
       <set comment="band 2">
        <r>  0.0002  0.0001  0.0000  0.0001  0.1673  0.0122  0.6276  0.0234  0.0951 </r>
        <r>  0.0019  0.0055  0.0004  0.0056  0.0001  0.0000  0.0003  0.0000  0.0000 </r>
       </set>
       <set comment="band 3">
        <r>  0.0000  0.0000  0.0000  0.0000  0.0009  0.3323  0.0247  0.5556  0.0174 </r>
        <r>  0.0000  0.0005  0.0108  0.0001  0.0000  0.0001  0.0000  0.0003  0.0000 </r>
       </set>
       <set comment="band 4">
        <r>  0.0000  0.0001  0.0000  0.0001  0.1690  0.0004  0.0198  0.0081  0.7323 </r>
        <r>  0.0000  0.0057  0.0001  0.0059  0.0001  0.0000  0.0000  0.0000  0.0003 </r>
       </set>
       <set comment="band 5">
        <r>  0.0000  0.0000  0.0000  0.0000  0.0001  0.6014  0.0000  0.3516  0.0014 </r>
        <r>  0.0000  0.0000  0.0000  0.0000  0.0000  0.0004  0.0000  0.0002  0.0000 </r>
       </set>
       <set comment="band 6">
        <r>  0.0000  0.0000  0.0000  0.0000  0.6079  0.0003  0.2607  0.0001  0.0851 </r>
        <r>  0.0004  0.0000  0.0000  0.0000  0.0004  0.0000  0.0001  0.0000  0.0000 </r>
       </set>
       <set comment="band 7">
        <r>  0.0863  0.0121  0.0002  0.0114  0.0075  0.0001  0.0301  0.0002  0.0043 </r>
        <r>  0.0604  0.1747  0.0033  0.1823  0.0005  0.0000  0.0003  0.0000  0.0001 </r>
       </set>
       <set comment="band 8">
        <r>  0.0002  0.0194  0.0000  0.0164  0.0090  0.0000  0.0009  0.0000  0.0473 </r>
        <r>  0.0002  0.2575  0.0001  0.2320  0.0002  0.0000  0.0000  0.0000  0.0004 </r>
       </set>
       <set comment="band 9">
        <r>  0.0001  0.0001  0.0321  0.0002  0.0002  0.0181  0.0005  0.0364  0.0000 </r>
        <r>  0.0001  0.0021  0.4896  0.0038  0.0000  0.0007  0.0000  0.0013  0.0000 </r>
       </set>
       <set comment="band 10">
        <r>  0.2147  0.0027  0.0002  0.0038  0.0027  0.0001  0.0122  0.0002  0.0010 </r>
        <r>  0.1870  0.0566  0.0028  0.0749  0.0001  0.0000  0.0001  0.0000  0.0000 </r>
       </set>
       <set comment="band 11">
        <r>  0.0000  0.1701  0.0001  0.0694  0.0002  0.0000  0.0000  0.0000  0.0012 </r>
        <r>  0.0000  0.0107  0.0000  0.0044  0.0071  0.0000  0.0001  0.0000  0.0650 </r>
       </set>
       <set comment="band 12">
        <r>  0.0000  0.0001  0.2398  0.0001  0.0000  0.0011  0.0000  0.0018  0.0000 </r>
        <r>  0.0000  0.0000  0.0105  0.0000  0.0000  0.0234  0.0000  0.0456  0.0000 </r>
       </set>
       <set comment="band 13">
        <r>  0.0002  0.0716  0.0000  0.1748  0.0009  0.0000  0.0010  0.0000  0.0001 </r>
        <r>  0.0000  0.0026  0.0000  0.0064  0.0169  0.0000  0.0525  0.0000  0.0011 </r>
       </set>
       <set comment="band 14">
        <r>  0.2565  0.0001  0.0000  0.0003  0.0000  0.0000  0.0000  0.0000  0.0000 </r>
        <r>  0.0042  0.0000  0.0000  0.0000  0.0000  0.0000  0.0003  0.0000  0.0000 </r>
       </set>
       <set comment="band 15">
        <r>  0.0000  0.0008  0.0001  0.0018  0.0667  0.0001  0.0062  0.0000  0.0076 </r>
        <r>  0.0000  0.0008  0.0000  0.0021  0.0895  0.0000  0.0595  0.0001  0.0120 </r>
       </set>
       <set comment="band 16">
        <r>  0.0000  0.0002  0.0000  0.0001  0.0000  0.0629  0.0000  0.0297  0.0002 </r>
        <r>  0.0000  0.0001  0.0000  0.0000  0.0001  0.1208  0.0000  0.0631  0.0000 </r>
       </set>
       <set comment="band 17">
        <r>  0.0000  0.0000  0.0283  0.0000  0.0002  0.0075  0.0001  0.0183  0.0000 </r>
        <r>  0.0000  0.0000  0.0112  0.0000  0.0005  0.0052  0.0001  0.0071  0.0001 </r>
       </set>
       <set comment="band 18">
        <r>  0.0000  0.0014  0.0000  0.0227  0.0002  0.0001  0.0303  0.0000  0.0034 </r>
        <r>  0.0001  0.0009  0.0000  0.0100  0.0388  0.0001  0.0000  0.0001  0.0009 </r>
       </set>
       <set comment="band 19">
        <r>  0.0000  0.0271  0.0000  0.0029  0.0029  0.0004  0.0032  0.0002  0.0195 </r>
        <r>  0.0000  0.0095  0.0000  0.0008  0.0003  0.0008  0.0000  0.0004  0.0155 </r>
       </set>
       <set comment="band 20">
        <r>  0.0381  0.0001  0.0000  0.0002  0.0001  0.0000  0.0001  0.0000  0.0000 </r>
        <r>  0.0232  0.0000  0.0000  0.0001  0.0000  0.0000  0.0001  0.0000  0.0000 </r>
       </set>
       <set comment="band 21">
        <r>  0.0000  0.0000  0.0000  0.0001  0.0001  0.0000  0.0000  0.0000  0.0005 </r>
        <r>  0.0000  0.0001  0.0000  0.0001  0.0014  0.0001  0.0000  0.0000  0.0060 </r>
       </set>
       <set comment="band 22">
        <r>  0.0000  0.0000  0.0007  0.0000  0.0000  0.0007  0.0000  0.0002  0.0000 </r>
        <r>  0.0000  0.0000  0.0001  0.0000  0.0000  0.0062  0.0001  0.0030  0.0000 </r>
       </set>
       <set comment="band 23">
        <r>  0.0000  0.0000  0.0003  0.0000  0.0000  0.0000  0.0000  0.0006  0.0000 </r>
        <r>  0.0000  0.0000  0.0000  0.0000  0.0000  0.0001  0.0001  0.0053  0.0000 </r>
       </set>
       <set comment="band 24">
        <r>  0.0000  0.0027  0.1288  0.0051  0.0002  0.0040  0.0002  0.0065  0.0000 </r>
        <r>  0.0000  0.0023  0.0956  0.0042  0.0054  0.1325  0.0136  0.2543  0.0009 </r>
       </set>
      </set>
     </set>
     <set comment="spin2">
      <set comment="kpoint 1">
       <set comment="band 1">
        <r>  0.0723  0.0000  0.0000  0.0000  0.0016  0.0000  0.0013  0.0000  0.0006 </r>
        <r>  0.5223  0.0006  0.0000  0.0008  0.0000  0.0000  0.0000  0.0000  0.0000 </r>
       </set>
       <set comment="band 2">
        <r>  0.0002  0.0000  0.0000  0.0001  0.1332  0.0110  0.6709  0.0230  0.0876 </r>
        <r>  0.0018  0.0055  0.0004  0.0056  0.0001  0.0000  0.0003  0.0000  0.0000 </r>
       </set>
       <set comment="band 3">
        <r>  0.0000  0.0000  0.0000  0.0000  0.1543  0.0103  0.0128  0.0039  0.7498 </r>
        <r>  0.0000  0.0058  0.0002  0.0054  0.0001  0.0000  0.0000  0.0000  0.0004 </r>
       </set>
       <set comment="band 4">
        <r>  0.0000  0.0000  0.0002  0.0000  0.0105  0.3198  0.0336  0.5632  0.0025 </r>
        <r>  0.0000  0.0000  0.0111  0.0005  0.0000  0.0001  0.0000  0.0003  0.0000 </r>
       </set>
       <set comment="band 5">
        <r>  0.0000  0.0000  0.0000  0.0000  0.0001  0.6051  0.0000  0.3475  0.0018 </r>
        <r>  0.0000  0.0000  0.0000  0.0000  0.0000  0.0004  0.0000  0.0002  0.0000 </r>
       </set>
       <set comment="band 6">
        <r>  0.0000  0.0000  0.0000  0.0000  0.6476  0.0003  0.2155  0.0001  0.0907 </r>
        <r>  0.0004  0.0000  0.0000  0.0000  0.0003  0.0000  0.0002  0.0000  0.0000 </r>
       </set>
       <set comment="band 7">
        <r>  0.0859  0.0092  0.0011  0.0135  0.0076  0.0005  0.0310  0.0010  0.0023 </r>
        <r>  0.0601  0.1436  0.0126  0.2047  0.0000  0.0000  0.0009  0.0000  0.0000 </r>
       </set>
       <set comment="band 8">
        <r>  0.0003  0.0003  0.0349  0.0005  0.0003  0.0184  0.0012  0.0371  0.0001 </r>
        <r>  0.0002  0.0058  0.4752  0.0085  0.0000  0.0002  0.0001  0.0004  0.0000 </r>
       </set>
       <set comment="band 9">
        <r>  0.0001  0.0188  0.0000  0.0136  0.0078  0.0000  0.0004  0.0000  0.0470 </r>
        <r>  0.0001  0.2865  0.0000  0.2091  0.0002  0.0000  0.0000  0.0000  0.0019 </r>
       </set>
       <set comment="band 10">
        <r>  0.2150  0.0031  0.0001  0.0034  0.0033  0.0001  0.0113  0.0001  0.0013 </r>
        <r>  0.1873  0.0596  0.0019  0.0722  0.0000  0.0000  0.0002  0.0000  0.0000 </r>
       </set>
       <set comment="band 11">
        <r>  0.0000  0.0000  0.2387  0.0008  0.0000  0.0005  0.0000  0.0009  0.0000 </r>
        <r>  0.0000  0.0000  0.0150  0.0001  0.0001  0.0244  0.0002  0.0477  0.0000 </r>
       </set>
       <set comment="band 12">
        <r>  0.0000  0.1589  0.0001  0.0809  0.0003  0.0000  0.0000  0.0000  0.0026 </r>
        <r>  0.0000  0.0069  0.0000  0.0036  0.0079  0.0000  0.0000  0.0000  0.0611 </r>
       </set>
       <set comment="band 13">
        <r>  0.0002  0.0830  0.0007  0.1626  0.0001  0.0000  0.0018  0.0000  0.0000 </r>
        <r>  0.0000  0.0030  0.0000  0.0060  0.0153  0.0001  0.0530  0.0001  0.0020 </r>
       </set>
       <set comment="band 14">
        <r>  0.2565  0.0002  0.0000  0.0002  0.0000  0.0000  0.0000  0.0000  0.0000 </r>
        <r>  0.0042  0.0000  0.0000  0.0000  0.0001  0.0000  0.0002  0.0000  0.0000 </r>
       </set>
       <set comment="band 15">
        <r>  0.0000  0.0005  0.0000  0.0020  0.0365  0.0000  0.0386  0.0000  0.0055 </r>
        <r>  0.0000  0.0008  0.0000  0.0022  0.1230  0.0001  0.0238  0.0000  0.0144 </r>
       </set>
       <set comment="band 16">
        <r>  0.0000  0.0000  0.0002  0.0000  0.0000  0.0585  0.0000  0.0343  0.0000 </r>
        <r>  0.0000  0.0000  0.0001  0.0000  0.0000  0.1258  0.0000  0.0585  0.0001 </r>
       </set>
       <set comment="band 17">
        <r>  0.0000  0.0184  0.0000  0.0100  0.0044  0.0001  0.0000  0.0000  0.0216 </r>
        <r>  0.0000  0.0073  0.0000  0.0040  0.0004  0.0001  0.0001  0.0001  0.0121 </r>
       </set>
       <set comment="band 18">
        <r>  0.0000  0.0075  0.0039  0.0128  0.0237  0.0015  0.0033  0.0017  0.0036 </r>
        <r>  0.0001  0.0035  0.0014  0.0061  0.0084  0.0002  0.0284  0.0016  0.0009 </r>
       </set>
       <set comment="band 19">
        <r>  0.0000  0.0011  0.0267  0.0021  0.0028  0.0103  0.0008  0.0119  0.0004 </r>
        <r>  0.0000  0.0005  0.0089  0.0009  0.0006  0.0016  0.0036  0.0113  0.0001 </r>
       </set>
       <set comment="band 20">
        <r>  0.0382  0.0001  0.0000  0.0002  0.0000  0.0000  0.0001  0.0000  0.0000 </r>
        <r>  0.0232  0.0000  0.0000  0.0000  0.0000  0.0000  0.0001  0.0000  0.0000 </r>
       </set>
       <set comment="band 21">
        <r>  0.0000  0.0000  0.0001  0.0000  0.0000  0.0003  0.0000  0.0004  0.0000 </r>
        <r>  0.0000  0.0000  0.0002  0.0000  0.0000  0.0031  0.0002  0.0042  0.0000 </r>
       </set>
       <set comment="band 22">
        <r>  0.0000  0.0004  0.0000  0.0002  0.0001  0.0001  0.0000  0.0001  0.0006 </r>
        <r>  0.0000  0.0001  0.0000  0.0000  0.0013  0.0007  0.0000  0.0004  0.0069 </r>
       </set>
       <set comment="band 23">
        <r>  0.0000  0.0002  0.0000  0.0001  0.0001  0.0001  0.0000  0.0000  0.0003 </r>
        <r>  0.0000  0.0000  0.0000  0.0000  0.0008  0.0007  0.0000  0.0003  0.0036 </r>
       </set>
       <set comment="band 24">
        <r>  0.0000  0.1104  0.0000  0.0267  0.0008  0.0000  0.0016  0.0000  0.0082 </r>
        <r>  0.0000  0.0836  0.0000  0.0202  0.0257  0.0002  0.0557  0.0001  0.3195 </r>
       </set>
      </set>
     </set>
    </set>
   </array>
  </projected>
 </calculation>
 <structure name="finalpos" >
  <crystal>
   <varray name="basis" >
    <v>       4.01975093       0.00000000       2.32080404 </v>
    <v>       1.33991663       3.78985854       2.32080404 </v>
    <v>       0.00000000       0.00000000       4.64161015 </v>
   </varray>
   <i name="volume">     70.71162285 </i>
   <varray name="rec_basis" >
    <v>       0.24877163      -0.08795401       0.00000000 </v>
    <v>       0.00000000       0.26386209       0.00000000 </v>
    <v>      -0.12438576      -0.08795400       0.21544248 </v>
   </varray>
  </crystal>
  <varray name="positions" >
   <v>       0.00000000       0.00000000       0.00000000 </v>
   <v>       0.25000000       0.25000000       0.25000000 </v>
  </varray>
 </structure>
</modeling>
