<?xml version="1.0" encoding="ISO-8859-1"?>
<modeling>
 <generator>
  <i name="program" type="string">vasp </i>
  <i name="version" type="string">6.4.2  </i>
  <i name="subversion" type="string">20Jul23 (build Mar 15 2024 16:31:38) complex                          parallel </i>
  <i name="platform" type="string">LinuxIFC </i>
  <i name="date" type="string">2025 03 26 </i>
  <i name="time" type="string">18:42:55 </i>
 </generator>
 <incar>
  <i type="string" name="PREC">Accurate</i>
  <i type="string" name="ALGO">Normal</i>
  <i type="int" name="ISPIN">     2</i>
  <i type="int" name="NELM">   200</i>
  <i name="EDIFF">      0.00001000</i>
  <i type="int" name="NSW">     0</i>
  <i name="ENCUT">    680.00000000</i>
  <i name="ENAUG">   1360.00000000</i>
  <v name="MAGMOM">      0.60000000      0.60000000      0.60000000      0.60000000      0.60000000      0.60000000      0.60000000      0.60000000</v>
  <i type="logical" name="LREAL"> F  </i>
  <i type="int" name="ISMEAR">     0</i>
  <i name="SIGMA">      0.01000000</i>
  <i type="int" name="LMAXMIX">     4</i>
  <i type="logical" name="LWAVE"> T  </i>
  <i type="logical" name="LCHARG"> T  </i>
  <i type="logical" name="LVTOT"> T  </i>
  <i type="int" name="LORBIT">    11</i>
  <i type="logical" name="LELF"> F  </i>
  <i type="logical" name="LASPH"> T  </i>
  <i type="logical" name="LAECHG"> T  </i>
  <i name="HFSCREEN">      0.20000000</i>
  <i type="logical" name="LHFCALC"> T  </i>
  <i type="string" name="GGA">Pe</i>
  <i type="string" name="PRECFOCK">Fast</i>
  <i type="logical" name="LDAU"> F  </i>
  <i type="logical" name="LMIXTAU"> T  </i>
 </incar>
 <primitive_cell>
  <structure name="primitive_cell" >
   <crystal>
    <varray name="basis" >
     <v>       4.93901185       0.00000000      -4.41848219 </v>
     <v>      -0.98753537       4.83927803      -4.41848219 </v>
     <v>       0.00000000       0.00000000       6.62697690 </v>
    </varray>
    <i name="volume">    158.39304179 </i>
    <varray name="rec_basis" >
     <v>       0.20246965       0.04131731       0.00000000 </v>
     <v>       0.00000000       0.20664239       0.00000000 </v>
     <v>       0.13499497       0.16532509       0.15089837 </v>
    </varray>
   </crystal>
   <varray name="positions" >
    <v>       0.75000000       0.25000000       0.50000000 </v>
    <v>       0.00000000       0.00000000       0.00000000 </v>
    <v>       0.25000000       0.75000000       0.50000000 </v>
    <v>       0.50000000       0.50000000       0.00000000 </v>
    <v>       0.36432714       0.37124032       0.47758056 </v>
    <v>       0.89365977       0.88674759       0.52241944 </v>
    <v>       0.11325241       0.63567286       0.00691218 </v>
    <v>       0.62875968       0.10634023       0.99308782 </v>
   </varray>
  </structure>
  <varray name="primitive_index" >
   <v type="int" >        1 </v>
   <v type="int" >        2 </v>
   <v type="int" >        3 </v>
   <v type="int" >        4 </v>
   <v type="int" >        5 </v>
   <v type="int" >        6 </v>
   <v type="int" >        7 </v>
   <v type="int" >        8 </v>
  </varray>
 </primitive_cell>
 <kpoints>
  <varray name="kpointlist" >
   <v>       0.00000000       0.00000000       0.00000000 </v>
  </varray>
  <varray name="weights" >
   <v>       1.00000000 </v>
  </varray>
 </kpoints>
 <parameters>
  <separator name="general" >
   <i type="string" name="SYSTEM">unknown system</i>
   <i type="logical" name="LCOMPAT"> F  </i>
  </separator>
  <separator name="electronic" >
   <i type="string" name="PREC">accura</i>
   <i name="ENMAX">    680.00000000</i>
   <i name="ENAUG">   1360.00000000</i>
   <i name="EDIFF">      0.00001000</i>
   <i type="int" name="IALGO">    38</i>
   <i type="int" name="IWAVPR">    10</i>
   <i type="int" name="NBANDS">    48</i>
   <i type="int" name="NBANDSLOW">    -1</i>
   <i type="int" name="NBANDSHIGH">    -1</i>
   <i name="NELECT">     72.00000000</i>
   <i type="int" name="TURBO">     0</i>
   <i type="int" name="IRESTART">     0</i>
   <i type="int" name="NREBOOT">     0</i>
   <i type="int" name="NMIN">     0</i>
   <i name="EREF">      0.00000000</i>
   <separator name="electronic smearing" >
    <i type="int" name="ISMEAR">     0</i>
    <i name="SIGMA">      0.01000000</i>
    <i name="KSPACING">      0.50000000</i>
    <i type="logical" name="KGAMMA"> T  </i>
    <i type="logical" name="KBLOWUP"> T  </i>
   </separator>
   <separator name="electronic projectors" >
    <i type="logical" name="LREAL"> F  </i>
    <v name="ROPT">      0.00000000      0.00000000      0.00000000      0.00000000</v>
    <i type="int" name="LMAXPAW">  -100</i>
    <i type="int" name="LMAXMIX">     4</i>
    <i type="logical" name="NLSPLINE"> F  </i>
   </separator>
   <separator name="electronic startup" >
    <i type="int" name="ISTART">     0</i>
    <i type="int" name="ICHARG">     2</i>
    <i type="int" name="INIWAV">     1</i>
   </separator>
   <separator name="electronic spin" >
    <i type="int" name="ISPIN">     2</i>
    <i type="logical" name="LNONCOLLINEAR"> F  </i>
    <v name="MAGMOM">      0.60000000      0.60000000      0.60000000      0.60000000      0.60000000      0.60000000      0.60000000      0.60000000</v>
    <i name="NUPDOWN">     -1.00000000</i>
    <i type="logical" name="LSORBIT"> F  </i>
    <v name="SAXIS">      0.00000000      0.00000000      1.00000000</v>
    <i type="logical" name="LSPIRAL"> F  </i>
    <v name="QSPIRAL">      0.00000000      0.00000000      0.00000000</v>
    <i type="logical" name="LZEROZ"> F  </i>
   </separator>
   <separator name="electronic exchange-correlation" >
    <i type="logical" name="LASPH"> T  </i>
    <i type="logical" name="LMETAGGA"> F  </i>
   </separator>
   <separator name="electronic convergence" >
    <i type="int" name="NELM">   200</i>
    <i type="int" name="NELMDL">    -5</i>
    <i type="int" name="NELMIN">     2</i>
    <i name="ENINI">    680.00000000</i>
    <separator name="electronic convergence detail" >
     <i type="logical" name="LDIAG"> T  </i>
     <i type="logical" name="LSUBROT"> F  </i>
     <i name="WEIMIN">      0.00000000</i>
     <i name="EBREAK">      0.00000005</i>
     <i name="DEPER">      0.30000000</i>
     <i type="int" name="NRMM">     4</i>
     <i name="TIME">      0.40000000</i>
    </separator>
   </separator>
   <separator name="electronic mixer" >
    <i name="AMIX">      0.40000000</i>
    <i name="BMIX">      1.00000000</i>
    <i name="AMIN">      0.10000000</i>
    <i name="AMIX_MAG">      1.60000000</i>
    <i name="BMIX_MAG">      1.00000000</i>
    <separator name="electronic mixer details" >
     <i type="int" name="IMIX">     1</i>
     <i type="logical" name="MIXFIRST"> F  </i>
     <i type="int" name="MAXMIX">   -45</i>
     <i name="WC">    100.00000000</i>
     <i type="int" name="INIMIX">     1</i>
     <i type="int" name="MIXPRE">     1</i>
     <i type="int" name="MREMOVE">     5</i>
    </separator>
   </separator>
   <separator name="electronic dipolcorrection" >
    <i type="logical" name="LDIPOL"> F  </i>
    <i type="logical" name="LMONO"> F  </i>
    <i type="int" name="IDIPOL">     0</i>
    <i name="EPSILON">      1.00000000</i>
    <v name="DIPOL">   -100.00000000   -100.00000000   -100.00000000</v>
    <i name="EFIELD">      0.00000000</i>
   </separator>
  </separator>
  <separator name="grids" >
   <i type="int" name="NGX">    56</i>
   <i type="int" name="NGY">    56</i>
   <i type="int" name="NGZ">    56</i>
   <i type="int" name="NGXF">   112</i>
   <i type="int" name="NGYF">   112</i>
   <i type="int" name="NGZF">   112</i>
   <i type="logical" name="ADDGRID"> F  </i>
  </separator>
  <separator name="ionic" >
   <i type="int" name="NSW">     0</i>
   <i type="int" name="IBRION">    -1</i>
   <i type="int" name="MDALGO">     0</i>
   <i type="int" name="ISIF">     0</i>
   <i name="PSTRESS">      0.00000000</i>
   <i name="EDIFFG">      0.00010000</i>
   <i type="int" name="NFREE">     0</i>
   <i name="POTIM">      0.50000000</i>
   <i name="SMASS">     -3.00000000</i>
   <i name="SCALEE">      1.00000000</i>
  </separator>
  <separator name="ionic md" >
   <i name="TEBEG">      0.00010000</i>
   <i name="TEEND">      0.00010000</i>
   <i type="int" name="NBLOCK">     1</i>
   <i type="int" name="KBLOCK">     1</i>
   <i type="int" name="NPACO">   256</i>
   <i name="APACO">     10.00000000</i>
  </separator>
  <separator name="symmetry" >
   <i type="int" name="ISYM">     3</i>
   <i name="SYMPREC">      0.00001000</i>
  </separator>
  <separator name="dos" >
   <i type="int" name="LORBIT">    11</i>
   <v name="RWIGS">     -1.00000000     -1.00000000     -1.00000000     -1.00000000</v>
   <i type="int" name="NEDOS">   301</i>
   <i name="EMIN">     10.00000000</i>
   <i name="EMAX">    -10.00000000</i>
   <i name="EFERMI">      0.00000000</i>
  </separator>
  <separator name="writing" >
   <i type="int" name="NWRITE">     2</i>
   <i type="logical" name="LWAVE"> T  </i>
   <i type="logical" name="LDOWNSAMPLE"> F  </i>
   <i type="logical" name="LCHARG"> T  </i>
   <i type="logical" name="LPARD"> F  </i>
   <i type="logical" name="LVTOT"> T  </i>
   <i type="logical" name="LVHAR"> F  </i>
   <i type="logical" name="LELF"> F  </i>
   <i type="logical" name="LOPTICS"> F  </i>
   <v name="STM">      0.00000000      0.00000000      0.00000000      0.00000000      0.00000000      0.00000000      0.00000000</v>
  </separator>
  <separator name="performance" >
   <i type="int" name="NPAR">    12</i>
   <i type="int" name="NSIM">     4</i>
   <i type="int" name="NBLK">    -1</i>
   <i type="logical" name="LPLANE"> T  </i>
   <i type="logical" name="LSCALAPACK"> T  </i>
   <i type="logical" name="LSCAAWARE"> F  </i>
   <i type="logical" name="LSCALU"> F  </i>
   <i type="logical" name="LASYNC"> F  </i>
   <i type="logical" name="LORBITALREAL"> F  </i>
  </separator>
  <separator name="miscellaneous" >
   <i type="int" name="IDIOT">     3</i>
   <i type="int" name="PHON_NSTRUCT">    -1</i>
   <i type="logical" name="LMUSIC"> F  </i>
   <v name="POMASS">     65.39000000     63.54600000    118.71000000     32.06600000</v>
   <v name="DARWINR">      0.00000000      0.00000000      0.00000000      0.00000000</v>
   <v name="DARWINV">      1.00000000      1.00000000      1.00000000      1.00000000</v>
   <i type="logical" name="LCORR"> T  </i>
  </separator>
  <i type="logical" name="GGA_COMPAT"> T  </i>
  <i type="logical" name="LBERRY"> F  </i>
  <i type="int" name="ICORELEVEL">     0</i>
  <i type="logical" name="LDAU"> F  </i>
  <i type="int" name="I_CONSTRAINED_M">     0</i>
  <separator name="electronic exchange-correlation" >
   <i type="string" name="GGA">PE</i>
   <i type="int" name="VOSKOWN">     0</i>
   <i type="logical" name="LHFCALC"> T  </i>
   <i type="string" name="PRECFOCK">fast</i>
   <i type="logical" name="LSYMGRAD"> F  </i>
   <i type="logical" name="LHFONE"> F  </i>
   <i type="logical" name="LRHFCALC"> F  </i>
   <i type="logical" name="LTHOMAS"> F  </i>
   <i type="logical" name="LMODELHF"> F  </i>
   <i type="logical" name="LFOCKACE"> T  </i>
   <i name="ENCUT4O">     -1.00000000</i>
   <i type="int" name="EXXOEP">     0</i>
   <i type="int" name="FOURORBIT">     0</i>
   <i name="AEXX">      0.25000000</i>
   <i name="HFALPHA">     -1.00000000</i>
   <i name="MCALPHA">      0.00000000</i>
   <i name="ALDAX">      0.75000000</i>
   <i name="AGGAX">      0.75000000</i>
   <i name="ALDAC">      1.00000000</i>
   <i name="AGGAC">      1.00000000</i>
   <i type="int" name="NKREDX">     1</i>
   <i type="int" name="NKREDY">     1</i>
   <i type="int" name="NKREDZ">     1</i>
   <i type="logical" name="SHIFTRED"> F  </i>
   <i type="logical" name="ODDONLY"> F  </i>
   <i type="logical" name="EVENONLY"> F  </i>
   <i type="int" name="LMAXFOCK">     4</i>
   <i type="int" name="NMAXFOCKAE">     1</i>
   <i type="logical" name="LFOCKAEDFT"> F  </i>
   <i name="HFSCREEN">      0.20000000</i>
   <i name="HFSCREENC">      0.20000000</i>
   <i type="int" name="NBANDSGWLOW">     1</i>
  </separator>
  <separator name="vdW DFT" >
   <i type="logical" name="LUSE_VDW"> F  </i>
   <i type="int" name="IVDW_NL">     1</i>
   <i type="logical" name="LSPIN_VDW"> F  </i>
   <i name="Zab_VDW">     -0.84910000</i>
   <i name="PARAM1">      0.12340000</i>
   <i name="PARAM2">      1.00000000</i>
   <i name="PARAM3">      0.00000000</i>
  </separator>
  <separator name="model GW" >
   <i type="int" name="MODEL_GW">     0</i>
   <i name="MODEL_EPS0">     11.87947813</i>
   <i name="MODEL_ALPHA">      1.00000000</i>
  </separator>
  <separator name="linear response parameters" >
   <i type="logical" name="LEPSILON"> F  </i>
   <i type="logical" name="LRPA"> F  </i>
   <i type="logical" name="LNABLA"> F  </i>
   <i type="logical" name="LVEL"> F  </i>
   <i name="CSHIFT">      0.10000000</i>
   <i name="OMEGAMAX">     -1.00000000</i>
   <i name="DEG_THRESHOLD">      0.00200000</i>
   <i name="RTIME">     -0.10000000</i>
   <i name="WPLASMAI">      0.00000000</i>
   <v name="DFIELD">      0.00000000      0.00000000      0.00000000</v>
   <v name="WPLASMA">      0.00000000      0.00000000      0.00000000      0.00000000      0.00000000      0.00000000      0.00000000      0.00000000      0.00000000</v>
  </separator>
  <separator name="orbital magnetization" >
   <i type="logical" name="NUCIND"> F  </i>
   <v name="MAGPOS">      0.00000000      0.00000000      0.00000000</v>
   <i type="logical" name="LNICSALL"> T  </i>
   <i type="logical" name="ORBITALMAG"> F  </i>
   <i type="logical" name="LMAGBLOCH"> F  </i>
   <i type="logical" name="LCHIMAG"> F  </i>
   <i type="logical" name="LGAUGE"> T  </i>
   <i type="int" name="MAGATOM">     0</i>
   <v name="MAGDIPOL">      0.00000000      0.00000000      0.00000000</v>
   <v name="AVECCONST">      0.00000000      0.00000000      0.00000000</v>
  </separator>
  <separator name="response functions" >
   <i type="logical" name="LALL_IN_ONE"> F  </i>
   <i type="int" name="IALL_IN_ONE">    -1</i>
   <i type="int" name="NBANDS_WAVE">    -1</i>
   <i type="logical" name="LFINITE_TEMPERATURE"> F  </i>
   <i type="logical" name="LADDER"> F  </i>
   <i type="logical" name="LRPAFORCE"> F  </i>
   <i type="logical" name="LFXC"> F  </i>
   <i type="logical" name="LHARTREE"> T  </i>
   <i type="int" name="IBSE">     0</i>
   <v type="int" name="KPOINT">    -1     0     0     0</v>
   <i type="logical" name="LTCTC"> F  </i>
   <i type="logical" name="LTCTE"> F  </i>
   <i type="logical" name="LTETE"> F  </i>
   <i type="logical" name="LTRIPLET"> F  </i>
   <i type="logical" name="LFXCEPS"> F  </i>
   <i type="logical" name="LFXHEG"> F  </i>
   <i type="int" name="NATURALO">     2</i>
   <i type="logical" name="LHOLEGF"> F  </i>
   <i type="logical" name="L2ORDER"> F  </i>
   <i type="logical" name="LDMP1"> F  </i>
   <i type="logical" name="LMP2LT"> F  </i>
   <i type="logical" name="LSMP2LT"> F  </i>
   <i type="logical" name="LGWLF"> F  </i>
   <i name="ENCUTGW">     -1.60000002</i>
   <i name="ENCUTGWSOFT">     -1.60000002</i>
   <i name="ENCUTLF">     -1.00000000</i>
   <i type="logical" name="LESF_SPLINES"> F  </i>
   <i type="int" name="LMAXMP2">    -1</i>
   <i name="SCISSOR">      0.00000000</i>
   <i type="int" name="NOMEGA">     0</i>
   <i type="int" name="NOMEGAR">     0</i>
   <i type="int" name="NBANDSGW">    -1</i>
   <i type="int" name="NBANDSO">    -1</i>
   <i type="int" name="NBANDSV">    -1</i>
   <i type="int" name="NELMGW">     1</i>
   <i type="int" name="NELMHF">     1</i>
   <i type="int" name="DIM">     3</i>
   <i type="int" name="IESPILON">     4</i>
   <i type="int" name="ANTIRES">     0</i>
   <i name="OMEGAMAX">    -30.00000000</i>
   <i name="OMEGAMIN">    -30.00000000</i>
   <i name="OMEGATL">   -200.00000000</i>
   <i type="int" name="OMEGAGRID">     0</i>
   <i name="CSHIFT">     -0.10000000</i>
   <i type="logical" name="LSELFENERGY"> F  </i>
   <i type="logical" name="LSPECTRAL"> F  </i>
   <i type="logical" name="LSPECTRALGW"> F  </i>
   <i type="logical" name="LSINGLES"> F  </i>
   <i type="logical" name="LFERMIGW"> F  </i>
   <i type="logical" name="ODDONLYGW"> F  </i>
   <i type="logical" name="EVENONLYGW"> F  </i>
   <i type="int" name="NKREDLFX">     1</i>
   <i type="int" name="NKREDLFY">     1</i>
   <i type="int" name="NKREDLFZ">     1</i>
   <i type="int" name="MAXMEM">  2800</i>
   <i type="int" name="TELESCOPE">     0</i>
   <i type="int" name="NTAUPAR">    -1</i>
   <i type="int" name="NOMEGAPAR">    -1</i>
   <i name="DAMP_NEWTON">      0.80000001</i>
   <i name="LAMBDA">      1.00000000</i>
  </separator>
  <separator name="External order field" >
   <i name="OFIELD_KAPPA">      0.00000000</i>
   <v name="OFIELD_K">      0.00000000      0.00000000      0.00000000</v>
   <i name="OFIELD_Q6_NEAR">      0.00000000</i>
   <i name="OFIELD_Q6_FAR">      0.00000000</i>
   <i name="OFIELD_A">      0.00000000</i>
  </separator>
  <separator name="optional k-points parameters" >
   <i type="int" name="KPOINTS_OPT_MODE">     1</i>
   <i type="logical" name="LKPOINTS_OPT"> F  </i>
  </separator>
 </parameters>
 <atominfo>
  <atoms>       8 </atoms>
  <types>       4 </types>
  <array name="atoms" >
   <dimension dim="1">ion</dimension>
   <field type="string">element</field>
   <field type="int">atomtype</field>
   <set>
    <rc><c>Zn</c><c>   1</c></rc>
    <rc><c>Cu</c><c>   2</c></rc>
    <rc><c>Cu</c><c>   2</c></rc>
    <rc><c>Sn</c><c>   3</c></rc>
    <rc><c>S </c><c>   4</c></rc>
    <rc><c>S </c><c>   4</c></rc>
    <rc><c>S </c><c>   4</c></rc>
    <rc><c>S </c><c>   4</c></rc>
   </set>
  </array>
  <array name="atomtypes" >
   <dimension dim="1">type</dimension>
   <field type="int">atomspertype</field>
   <field type="string">element</field>
   <field>mass</field>
   <field>valence</field>
   <field type="string">pseudopotential</field>
   <set>
    <rc><c>   1</c><c>Zn</c><c>     65.39000000</c><c>     12.00000000</c><c>  PAW_PBE Zn 06Sep2000                  </c></rc>
    <rc><c>   2</c><c>Cu</c><c>     63.54600000</c><c>     11.00000000</c><c>  PAW_PBE Cu 22Jun2005                  </c></rc>
    <rc><c>   1</c><c>Sn</c><c>    118.71000000</c><c>     14.00000000</c><c>  PAW_PBE Sn_d 06Sep2000                </c></rc>
    <rc><c>   4</c><c>S </c><c>     32.06600000</c><c>      6.00000000</c><c>  PAW_PBE S 06Sep2000                   </c></rc>
   </set>
  </array>
 </atominfo>
 <structure name="initialpos" >
  <crystal>
   <varray name="basis" >
    <v>       4.93901185       0.00000000      -4.41848219 </v>
    <v>      -0.98753537       4.83927803      -4.41848219 </v>
    <v>       0.00000000       0.00000000       6.62697690 </v>
   </varray>
   <i name="volume">    158.39304179 </i>
   <varray name="rec_basis" >
    <v>       0.20246965       0.04131731       0.00000000 </v>
    <v>       0.00000000       0.20664239       0.00000000 </v>
    <v>       0.13499497       0.16532509       0.15089837 </v>
   </varray>
  </crystal>
  <varray name="positions" >
   <v>       0.75000000       0.25000000       0.50000000 </v>
   <v>       0.00000000       0.00000000       0.00000000 </v>
   <v>       0.25000000       0.75000000       0.50000000 </v>
   <v>       0.50000000       0.50000000       0.00000000 </v>
   <v>       0.36432714       0.37124032       0.47758056 </v>
   <v>       0.89365977       0.88674759       0.52241944 </v>
   <v>       0.11325241       0.63567286       0.00691218 </v>
   <v>       0.62875968       0.10634023       0.99308782 </v>
  </varray>
 </structure>
 <calculation>
  <scstep>
   <time name="dav">    0.09    0.10</time>
   <time name="total">    0.53    0.54</time>
   <energy>
    <i name="alphaZ">    202.50320330 </i>
    <i name="ewald">  -5034.42253749 </i>
    <i name="hartreedc">  -2428.65725175 </i>
    <i name="XCdc">    254.94177981 </i>
    <i name="pawpsdc">   6350.20787093 </i>
    <i name="pawaedc">  -9469.52756924 </i>
    <i name="eentropy">     -0.00000000 </i>
    <i name="bandstr">    414.32544167 </i>
    <i name="atom">   7517.07041424 </i>
    <i name="e_fr_energy">  -2193.55864853 </i>
    <i name="e_wo_entrp">  -2193.55864853 </i>
    <i name="e_0_energy">  -2193.55864853 </i>
   </energy>
  </scstep>
  <scstep>
   <time name="dav">    0.05    0.05</time>
   <time name="total">    0.05    0.05</time>
   <energy>
    <i name="e_fr_energy">  -2824.03272649 </i>
    <i name="e_wo_entrp">  -2824.03272649 </i>
    <i name="e_0_energy">  -2824.03272649 </i>
   </energy>
  </scstep>
  <scstep>
   <time name="dav">    0.05    0.06</time>
   <time name="total">    0.05    0.06</time>
   <energy>
    <i name="e_fr_energy">  -2925.57533872 </i>
    <i name="e_wo_entrp">  -2925.57533872 </i>
    <i name="e_0_energy">  -2925.57533872 </i>
   </energy>
  </scstep>
  <scstep>
   <time name="dav">    0.05    0.06</time>
   <time name="total">    0.05    0.06</time>
   <energy>
    <i name="e_fr_energy">  -2931.53023290 </i>
    <i name="e_wo_entrp">  -2931.53023290 </i>
    <i name="e_0_energy">  -2931.53023290 </i>
   </energy>
  </scstep>
  <scstep>
   <time name="dav">    0.20    0.21</time>
   <time name="total">    1.19    1.20</time>
   <energy>
    <i name="e_fr_energy">    -39.85919716 </i>
    <i name="e_wo_entrp">    -39.85919716 </i>
    <i name="e_0_energy">    -39.85919716 </i>
   </energy>
  </scstep>
  <scstep>
   <time name="dav">    0.13    0.14</time>
   <time name="total">    1.10    1.12</time>
   <energy>
    <i name="e_fr_energy">    -38.76038817 </i>
    <i name="e_wo_entrp">    -38.76038817 </i>
    <i name="e_0_energy">    -38.76038817 </i>
   </energy>
  </scstep>
  <scstep>
   <time name="dav">    0.14    0.14</time>
   <time name="total">    1.11    1.13</time>
   <energy>
    <i name="e_fr_energy">    -38.76801320 </i>
    <i name="e_wo_entrp">    -38.76801320 </i>
    <i name="e_0_energy">    -38.76801320 </i>
   </energy>
  </scstep>
  <scstep>
   <time name="dav">    0.13    0.13</time>
   <time name="total">    1.11    1.13</time>
   <energy>
    <i name="e_fr_energy">    -38.84703448 </i>
    <i name="e_wo_entrp">    -38.84703448 </i>
    <i name="e_0_energy">    -38.84703448 </i>
   </energy>
  </scstep>
  <scstep>
   <time name="dav">    0.14    0.14</time>
   <time name="total">    1.11    1.13</time>
   <energy>
    <i name="e_fr_energy">    -38.85476837 </i>
    <i name="e_wo_entrp">    -38.85476837 </i>
    <i name="e_0_energy">    -38.85476837 </i>
   </energy>
  </scstep>
  <scstep>
   <time name="dav">    0.14    0.14</time>
   <time name="total">    1.11    1.12</time>
   <energy>
    <i name="e_fr_energy">    -38.85778778 </i>
    <i name="e_wo_entrp">    -38.85778778 </i>
    <i name="e_0_energy">    -38.85778778 </i>
   </energy>
  </scstep>
  <scstep>
   <time name="dav">    0.15    0.16</time>
   <time name="total">    1.12    1.14</time>
   <energy>
    <i name="e_fr_energy">    -38.85992200 </i>
    <i name="e_wo_entrp">    -38.85992200 </i>
    <i name="e_0_energy">    -38.85992200 </i>
   </energy>
  </scstep>
  <scstep>
   <time name="dav">    0.14    0.14</time>
   <time name="total">    1.12    1.14</time>
   <energy>
    <i name="e_fr_energy">    -38.86084785 </i>
    <i name="e_wo_entrp">    -38.86084785 </i>
    <i name="e_0_energy">    -38.86084785 </i>
   </energy>
  </scstep>
  <scstep>
   <time name="dav">    0.15    0.15</time>
   <time name="total">    1.12    1.14</time>
   <energy>
    <i name="e_fr_energy">    -38.86124565 </i>
    <i name="e_wo_entrp">    -38.86124565 </i>
    <i name="e_0_energy">    -38.86124565 </i>
   </energy>
  </scstep>
  <scstep>
   <time name="dav">    0.14    0.14</time>
   <time name="total">    1.11    1.13</time>
   <energy>
    <i name="e_fr_energy">    -38.86142588 </i>
    <i name="e_wo_entrp">    -38.86142588 </i>
    <i name="e_0_energy">    -38.86142588 </i>
   </energy>
  </scstep>
  <scstep>
   <time name="dav">    0.13    0.13</time>
   <time name="total">    1.11    1.12</time>
   <energy>
    <i name="e_fr_energy">    -38.86151020 </i>
    <i name="e_wo_entrp">    -38.86151020 </i>
    <i name="e_0_energy">    -38.86151020 </i>
   </energy>
  </scstep>
  <scstep>
   <time name="dav">    0.13    0.13</time>
   <time name="total">    1.11    1.13</time>
   <energy>
    <i name="e_fr_energy">    -38.86154875 </i>
    <i name="e_wo_entrp">    -38.86154875 </i>
    <i name="e_0_energy">    -38.86154875 </i>
   </energy>
  </scstep>
  <scstep>
   <time name="dav">    0.12    0.12</time>
   <time name="total">    1.09    1.11</time>
   <energy>
    <i name="e_fr_energy">    -38.86156647 </i>
    <i name="e_wo_entrp">    -38.86156647 </i>
    <i name="e_0_energy">    -38.86156647 </i>
   </energy>
  </scstep>
  <scstep>
   <time name="dav">    0.12    0.12</time>
   <time name="total">    1.07    1.10</time>
   <energy>
    <i name="alphaZ">    202.50320330 </i>
    <i name="ewald">  -5034.42253749 </i>
    <i name="hartreedc">  -2410.24699029 </i>
    <i name="XCdc">    193.69581572 </i>
    <i name="pawpsdc">   9321.09873844 </i>
    <i name="pawaedc">  -9706.02003090 </i>
    <i name="eentropy">     -0.00000000 </i>
    <i name="bandstr">   -295.65951698 </i>
    <i name="atom">   7517.07041424 </i>
    <i name="e_fr_energy">    -38.86157474 </i>
    <i name="e_wo_entrp">    -38.86157474 </i>
    <i name="e_0_energy">    -38.86157474 </i>
   </energy>
  </scstep>
  <structure>
   <crystal>
    <varray name="basis" >
     <v>       4.93901185       0.00000000      -4.41848219 </v>
     <v>      -0.98753537       4.83927803      -4.41848219 </v>
     <v>       0.00000000       0.00000000       6.62697690 </v>
    </varray>
    <i name="volume">    158.39304179 </i>
    <varray name="rec_basis" >
     <v>       0.20246965       0.04131731       0.00000000 </v>
     <v>       0.00000000       0.20664239       0.00000000 </v>
     <v>       0.13499497       0.16532509       0.15089837 </v>
    </varray>
   </crystal>
   <varray name="positions" >
    <v>       0.75000000       0.25000000       0.50000000 </v>
    <v>       0.00000000       0.00000000       0.00000000 </v>
    <v>       0.25000000       0.75000000       0.50000000 </v>
    <v>       0.50000000       0.50000000       0.00000000 </v>
    <v>       0.36432714       0.37124032       0.47758056 </v>
    <v>       0.89365977       0.88674759       0.52241944 </v>
    <v>       0.11325241       0.63567286       0.00691218 </v>
    <v>       0.62875968       0.10634023       0.99308782 </v>
   </varray>
  </structure>
  <varray name="forces" >
   <v>      -0.00000000      -0.00000000       0.00000000 </v>
   <v>      -0.00000000       0.00000000       0.00000000 </v>
   <v>      -0.00000000       0.00000000       0.00000000 </v>
   <v>      -0.00000000       0.00000000       0.00000000 </v>
   <v>       0.34428352       0.03970401       0.46987200 </v>
   <v>      -0.51969577      -0.25452717      -0.07758526 </v>
   <v>       0.33023088      -0.34527004      -0.33559412 </v>
   <v>      -0.15481863       0.56009319      -0.05669262 </v>
  </varray>
  <energy>
   <i name="e_fr_energy">    -38.86157474 </i>
   <i name="e_wo_entrp">    -38.86157474 </i>
   <i name="e_0_energy">    -38.86157474 </i>
  </energy>
  <time name="totalsc">   20.56   20.88</time>
  <eigenvalues>
   <array>
    <dimension dim="1">band</dimension>
    <dimension dim="2">kpoint</dimension>
    <dimension dim="3">spin</dimension>
    <field>eigene</field>
    <field>occ</field>
    <set>
     <set comment="spin 1">
      <set comment="kpoint 1">
       <r>  -20.0971    1.0000 </r>
       <r>  -20.0971    1.0000 </r>
       <r>  -20.0891    1.0000 </r>
       <r>  -20.0100    1.0000 </r>
       <r>  -19.9996    1.0000 </r>
       <r>  -11.4608    1.0000 </r>
       <r>   -9.7803    1.0000 </r>
       <r>   -9.7803    1.0000 </r>
       <r>   -9.7706    1.0000 </r>
       <r>   -4.5364    1.0000 </r>
       <r>   -4.4711    1.0000 </r>
       <r>   -4.4375    1.0000 </r>
       <r>   -4.4375    1.0000 </r>
       <r>   -4.4240    1.0000 </r>
       <r>   -4.0424    1.0000 </r>
       <r>   -1.7338    1.0000 </r>
       <r>   -1.1200    1.0000 </r>
       <r>   -1.0873    1.0000 </r>
       <r>   -0.6505    1.0000 </r>
       <r>   -0.4612    1.0000 </r>
       <r>   -0.4612    1.0000 </r>
       <r>   -0.0545    1.0000 </r>
       <r>   -0.0545    1.0000 </r>
       <r>    0.3497    1.0000 </r>
       <r>    0.4068    1.0000 </r>
       <r>    0.4068    1.0000 </r>
       <r>    1.3458    1.0000 </r>
       <r>    1.3586    1.0000 </r>
       <r>    1.6641    1.0000 </r>
       <r>    1.8606    1.0000 </r>
       <r>    1.9151    1.0000 </r>
       <r>    1.9151    1.0000 </r>
       <r>    2.0759    1.0000 </r>
       <r>    3.9405    1.0000 </r>
       <r>    3.9405    1.0000 </r>
       <r>    4.0539    1.0000 </r>
       <r>    5.8095    0.0000 </r>
       <r>    7.3439    0.0000 </r>
       <r>    8.4144    0.0000 </r>
       <r>    9.2282    0.0000 </r>
       <r>    9.2282    0.0000 </r>
       <r>   10.5290    0.0000 </r>
       <r>   10.8709    0.0000 </r>
       <r>   10.8709    0.0000 </r>
       <r>   10.8821    0.0000 </r>
       <r>   11.6437    0.0000 </r>
       <r>   12.4812    0.0000 </r>
       <r>   12.5784    0.0000 </r>
      </set>
     </set>
     <set comment="spin 2">
      <set comment="kpoint 1">
       <r>  -20.0973    1.0000 </r>
       <r>  -20.0973    1.0000 </r>
       <r>  -20.0893    1.0000 </r>
       <r>  -20.0102    1.0000 </r>
       <r>  -19.9997    1.0000 </r>
       <r>  -11.4612    1.0000 </r>
       <r>   -9.7807    1.0000 </r>
       <r>   -9.7807    1.0000 </r>
       <r>   -9.7710    1.0000 </r>
       <r>   -4.5368    1.0000 </r>
       <r>   -4.4714    1.0000 </r>
       <r>   -4.4378    1.0000 </r>
       <r>   -4.4378    1.0000 </r>
       <r>   -4.4243    1.0000 </r>
       <r>   -4.0428    1.0000 </r>
       <r>   -1.7343    1.0000 </r>
       <r>   -1.1204    1.0000 </r>
       <r>   -1.0878    1.0000 </r>
       <r>   -0.6510    1.0000 </r>
       <r>   -0.4617    1.0000 </r>
       <r>   -0.4617    1.0000 </r>
       <r>   -0.0548    1.0000 </r>
       <r>   -0.0548    1.0000 </r>
       <r>    0.3493    1.0000 </r>
       <r>    0.4064    1.0000 </r>
       <r>    0.4064    1.0000 </r>
       <r>    1.3455    1.0000 </r>
       <r>    1.3582    1.0000 </r>
       <r>    1.6638    1.0000 </r>
       <r>    1.8603    1.0000 </r>
       <r>    1.9147    1.0000 </r>
       <r>    1.9147    1.0000 </r>
       <r>    2.0755    1.0000 </r>
       <r>    3.9401    1.0000 </r>
       <r>    3.9401    1.0000 </r>
       <r>    4.0535    1.0000 </r>
       <r>    5.8089    0.0000 </r>
       <r>    7.3429    0.0000 </r>
       <r>    8.4137    0.0000 </r>
       <r>    9.2274    0.0000 </r>
       <r>    9.2274    0.0000 </r>
       <r>   10.5283    0.0000 </r>
       <r>   10.8700    0.0000 </r>
       <r>   10.8701    0.0000 </r>
       <r>   10.8815    0.0000 </r>
       <r>   11.6433    0.0000 </r>
       <r>   12.4755    0.0000 </r>
       <r>   12.5749    0.0000 </r>
      </set>
     </set>
    </set>
   </array>
  </eigenvalues>
  <separator name="orbital magnetization" >
   <v name="MAGDIPOLOUT">      0.00000000      0.00000000      0.00000000</v>
  </separator>
  <dos>
   <i name="efermi">      4.17801264 </i>
   <total>
    <array>
     <dimension dim="1">gridpoints</dimension>
     <dimension dim="2">spin</dimension>
     <field>energy</field>
     <field>total</field>
     <field>integrated</field>
     <set>
      <set comment="spin 1">
       <r>   -21.7310     0.0000     0.0000 </r>
       <r>   -21.6112     0.0000     0.0000 </r>
       <r>   -21.4914     0.0000     0.0000 </r>
       <r>   -21.3716     0.0000     0.0000 </r>
       <r>   -21.2518     0.0000     0.0000 </r>
       <r>   -21.1320     0.0000     0.0000 </r>
       <r>   -21.0122     0.0000     0.0000 </r>
       <r>   -20.8924     0.0000     0.0000 </r>
       <r>   -20.7726     0.0000     0.0000 </r>
       <r>   -20.6527     0.0000     0.0000 </r>
       <r>   -20.5329     0.0000     0.0000 </r>
       <r>   -20.4131     0.0000     0.0000 </r>
       <r>   -20.2933     0.0000     0.0000 </r>
       <r>   -20.1735     0.0000     0.0000 </r>
       <r>   -20.0537    25.0395     3.0000 </r>
       <r>   -19.9339    16.6930     5.0000 </r>
       <r>   -19.8141     0.0000     5.0000 </r>
       <r>   -19.6943     0.0000     5.0000 </r>
       <r>   -19.5745     0.0000     5.0000 </r>
       <r>   -19.4546     0.0000     5.0000 </r>
       <r>   -19.3348     0.0000     5.0000 </r>
       <r>   -19.2150     0.0000     5.0000 </r>
       <r>   -19.0952     0.0000     5.0000 </r>
       <r>   -18.9754     0.0000     5.0000 </r>
       <r>   -18.8556     0.0000     5.0000 </r>
       <r>   -18.7358     0.0000     5.0000 </r>
       <r>   -18.6160     0.0000     5.0000 </r>
       <r>   -18.4962     0.0000     5.0000 </r>
       <r>   -18.3763     0.0000     5.0000 </r>
       <r>   -18.2565     0.0000     5.0000 </r>
       <r>   -18.1367     0.0000     5.0000 </r>
       <r>   -18.0169     0.0000     5.0000 </r>
       <r>   -17.8971     0.0000     5.0000 </r>
       <r>   -17.7773     0.0000     5.0000 </r>
       <r>   -17.6575     0.0000     5.0000 </r>
       <r>   -17.5377     0.0000     5.0000 </r>
       <r>   -17.4179     0.0000     5.0000 </r>
       <r>   -17.2981     0.0000     5.0000 </r>
       <r>   -17.1782     0.0000     5.0000 </r>
       <r>   -17.0584     0.0000     5.0000 </r>
       <r>   -16.9386     0.0000     5.0000 </r>
       <r>   -16.8188     0.0000     5.0000 </r>
       <r>   -16.6990     0.0000     5.0000 </r>
       <r>   -16.5792     0.0000     5.0000 </r>
       <r>   -16.4594     0.0000     5.0000 </r>
       <r>   -16.3396     0.0000     5.0000 </r>
       <r>   -16.2198     0.0000     5.0000 </r>
       <r>   -16.0999     0.0000     5.0000 </r>
       <r>   -15.9801     0.0000     5.0000 </r>
       <r>   -15.8603     0.0000     5.0000 </r>
       <r>   -15.7405     0.0000     5.0000 </r>
       <r>   -15.6207     0.0000     5.0000 </r>
       <r>   -15.5009     0.0000     5.0000 </r>
       <r>   -15.3811     0.0000     5.0000 </r>
       <r>   -15.2613     0.0000     5.0000 </r>
       <r>   -15.1415     0.0000     5.0000 </r>
       <r>   -15.0216     0.0000     5.0000 </r>
       <r>   -14.9018     0.0000     5.0000 </r>
       <r>   -14.7820     0.0000     5.0000 </r>
       <r>   -14.6622     0.0000     5.0000 </r>
       <r>   -14.5424     0.0000     5.0000 </r>
       <r>   -14.4226     0.0000     5.0000 </r>
       <r>   -14.3028     0.0000     5.0000 </r>
       <r>   -14.1830     0.0000     5.0000 </r>
       <r>   -14.0632     0.0000     5.0000 </r>
       <r>   -13.9434     0.0000     5.0000 </r>
       <r>   -13.8235     0.0000     5.0000 </r>
       <r>   -13.7037     0.0000     5.0000 </r>
       <r>   -13.5839     0.0000     5.0000 </r>
       <r>   -13.4641     0.0000     5.0000 </r>
       <r>   -13.3443     0.0000     5.0000 </r>
       <r>   -13.2245     0.0000     5.0000 </r>
       <r>   -13.1047     0.0000     5.0000 </r>
       <r>   -12.9849     0.0000     5.0000 </r>
       <r>   -12.8651     0.0000     5.0000 </r>
       <r>   -12.7452     0.0000     5.0000 </r>
       <r>   -12.6254     0.0000     5.0000 </r>
       <r>   -12.5056     0.0000     5.0000 </r>
       <r>   -12.3858     0.0000     5.0000 </r>
       <r>   -12.2660     0.0000     5.0000 </r>
       <r>   -12.1462     0.0000     5.0000 </r>
       <r>   -12.0264     0.0000     5.0000 </r>
       <r>   -11.9066     0.0000     5.0000 </r>
       <r>   -11.7868     0.0000     5.0000 </r>
       <r>   -11.6669     0.0000     5.0000 </r>
       <r>   -11.5471     0.0000     5.0000 </r>
       <r>   -11.4273     8.3465     6.0000 </r>
       <r>   -11.3075     0.0000     6.0000 </r>
       <r>   -11.1877     0.0000     6.0000 </r>
       <r>   -11.0679     0.0000     6.0000 </r>
       <r>   -10.9481     0.0000     6.0000 </r>
       <r>   -10.8283     0.0000     6.0000 </r>
       <r>   -10.7085     0.0000     6.0000 </r>
       <r>   -10.5887     0.0000     6.0000 </r>
       <r>   -10.4688     0.0000     6.0000 </r>
       <r>   -10.3490     0.0000     6.0000 </r>
       <r>   -10.2292     0.0000     6.0000 </r>
       <r>   -10.1094     0.0000     6.0000 </r>
       <r>    -9.9896     0.0000     6.0000 </r>
       <r>    -9.8698     0.0000     6.0000 </r>
       <r>    -9.7500    25.0247     8.9982 </r>
       <r>    -9.6302     0.0000     9.0000 </r>
       <r>    -9.5104     0.0000     9.0000 </r>
       <r>    -9.3905     0.0000     9.0000 </r>
       <r>    -9.2707     0.0000     9.0000 </r>
       <r>    -9.1509     0.0000     9.0000 </r>
       <r>    -9.0311     0.0000     9.0000 </r>
       <r>    -8.9113     0.0000     9.0000 </r>
       <r>    -8.7915     0.0000     9.0000 </r>
       <r>    -8.6717     0.0000     9.0000 </r>
       <r>    -8.5519     0.0000     9.0000 </r>
       <r>    -8.4321     0.0000     9.0000 </r>
       <r>    -8.3123     0.0000     9.0000 </r>
       <r>    -8.1924     0.0000     9.0000 </r>
       <r>    -8.0726     0.0000     9.0000 </r>
       <r>    -7.9528     0.0000     9.0000 </r>
       <r>    -7.8330     0.0000     9.0000 </r>
       <r>    -7.7132     0.0000     9.0000 </r>
       <r>    -7.5934     0.0000     9.0000 </r>
       <r>    -7.4736     0.0000     9.0000 </r>
       <r>    -7.3538     0.0000     9.0000 </r>
       <r>    -7.2340     0.0000     9.0000 </r>
       <r>    -7.1141     0.0000     9.0000 </r>
       <r>    -6.9943     0.0000     9.0000 </r>
       <r>    -6.8745     0.0000     9.0000 </r>
       <r>    -6.7547     0.0000     9.0000 </r>
       <r>    -6.6349     0.0000     9.0000 </r>
       <r>    -6.5151     0.0000     9.0000 </r>
       <r>    -6.3953     0.0000     9.0000 </r>
       <r>    -6.2755     0.0000     9.0000 </r>
       <r>    -6.1557     0.0000     9.0000 </r>
       <r>    -6.0358     0.0000     9.0000 </r>
       <r>    -5.9160     0.0000     9.0000 </r>
       <r>    -5.7962     0.0000     9.0000 </r>
       <r>    -5.6764     0.0000     9.0000 </r>
       <r>    -5.5566     0.0000     9.0000 </r>
       <r>    -5.4368     0.0000     9.0000 </r>
       <r>    -5.3170     0.0000     9.0000 </r>
       <r>    -5.1972     0.0000     9.0000 </r>
       <r>    -5.0774     0.0000     9.0000 </r>
       <r>    -4.9576     0.0000     9.0000 </r>
       <r>    -4.8377     0.0000     9.0000 </r>
       <r>    -4.7179     0.0000     9.0000 </r>
       <r>    -4.5981     0.0000     9.0000 </r>
       <r>    -4.4783     9.6371    10.1546 </r>
       <r>    -4.3585    25.0395    14.0000 </r>
       <r>    -4.2387     0.0000    14.0000 </r>
       <r>    -4.1189     0.0000    14.0000 </r>
       <r>    -3.9991     8.3465    15.0000 </r>
       <r>    -3.8793     0.0000    15.0000 </r>
       <r>    -3.7594     0.0000    15.0000 </r>
       <r>    -3.6396     0.0000    15.0000 </r>
       <r>    -3.5198     0.0000    15.0000 </r>
       <r>    -3.4000     0.0000    15.0000 </r>
       <r>    -3.2802     0.0000    15.0000 </r>
       <r>    -3.1604     0.0000    15.0000 </r>
       <r>    -3.0406     0.0000    15.0000 </r>
       <r>    -2.9208     0.0000    15.0000 </r>
       <r>    -2.8010     0.0000    15.0000 </r>
       <r>    -2.6811     0.0000    15.0000 </r>
       <r>    -2.5613     0.0000    15.0000 </r>
       <r>    -2.4415     0.0000    15.0000 </r>
       <r>    -2.3217     0.0000    15.0000 </r>
       <r>    -2.2019     0.0000    15.0000 </r>
       <r>    -2.0821     0.0000    15.0000 </r>
       <r>    -1.9623     0.0000    15.0000 </r>
       <r>    -1.8425     0.0000    15.0000 </r>
       <r>    -1.7227     7.8667    15.9425 </r>
       <r>    -1.6029     0.0000    16.0000 </r>
       <r>    -1.4830     0.0000    16.0000 </r>
       <r>    -1.3632     0.0000    16.0000 </r>
       <r>    -1.2434     0.0000    16.0000 </r>
       <r>    -1.1236     2.5297    16.3031 </r>
       <r>    -1.0038     0.0000    18.0000 </r>
       <r>    -0.8840     0.0000    18.0000 </r>
       <r>    -0.7642     0.0000    18.0000 </r>
       <r>    -0.6444     6.7368    18.8071 </r>
       <r>    -0.5246     0.0000    19.0000 </r>
       <r>    -0.4047    16.6930    21.0000 </r>
       <r>    -0.2849     0.0000    21.0000 </r>
       <r>    -0.1651     0.0000    21.0000 </r>
       <r>    -0.0453    15.0586    22.8042 </r>
       <r>     0.0745     0.0000    23.0000 </r>
       <r>     0.1943     0.0000    23.0000 </r>
       <r>     0.3141     0.0000    23.0000 </r>
       <r>     0.4339    16.6920    25.9999 </r>
       <r>     0.5537     0.0000    26.0000 </r>
       <r>     0.6736     0.0000    26.0000 </r>
       <r>     0.7934     0.0000    26.0000 </r>
       <r>     0.9132     0.0000    26.0000 </r>
       <r>     1.0330     0.0000    26.0000 </r>
       <r>     1.1528     0.0000    26.0000 </r>
       <r>     1.2726     0.0000    26.0000 </r>
       <r>     1.3924    16.6930    28.0000 </r>
       <r>     1.5122     0.0000    28.0000 </r>
       <r>     1.6320     0.0000    28.0000 </r>
       <r>     1.7518     0.0000    29.0000 </r>
       <r>     1.8717     7.8589    29.9416 </r>
       <r>     1.9915    16.6930    32.0000 </r>
       <r>     2.1113     8.3465    33.0000 </r>
       <r>     2.2311     0.0000    33.0000 </r>
       <r>     2.3509     0.0000    33.0000 </r>
       <r>     2.4707     0.0000    33.0000 </r>
       <r>     2.5905     0.0000    33.0000 </r>
       <r>     2.7103     0.0000    33.0000 </r>
       <r>     2.8301     0.0000    33.0000 </r>
       <r>     2.9500     0.0000    33.0000 </r>
       <r>     3.0698     0.0000    33.0000 </r>
       <r>     3.1896     0.0000    33.0000 </r>
       <r>     3.3094     0.0000    33.0000 </r>
       <r>     3.4292     0.0000    33.0000 </r>
       <r>     3.5490     0.0000    33.0000 </r>
       <r>     3.6688     0.0000    33.0000 </r>
       <r>     3.7886     0.0000    33.0000 </r>
       <r>     3.9084     0.0000    33.0000 </r>
       <r>     4.0282     0.0012    35.0001 </r>
       <r>     4.1481     0.0000    36.0000 </r>
       <r>     4.2679     0.0000    36.0000 </r>
       <r>     4.3877     0.0000    36.0000 </r>
       <r>     4.5075     0.0000    36.0000 </r>
       <r>     4.6273     0.0000    36.0000 </r>
       <r>     4.7471     0.0000    36.0000 </r>
       <r>     4.8669     0.0000    36.0000 </r>
       <r>     4.9867     0.0000    36.0000 </r>
       <r>     5.1065     0.0000    36.0000 </r>
       <r>     5.2264     0.0000    36.0000 </r>
       <r>     5.3462     0.0000    36.0000 </r>
       <r>     5.4660     0.0000    36.0000 </r>
       <r>     5.5858     0.0000    36.0000 </r>
       <r>     5.7056     0.0000    36.0000 </r>
       <r>     5.8254     8.2450    36.9878 </r>
       <r>     5.9452     0.0000    37.0000 </r>
       <r>     6.0650     0.0000    37.0000 </r>
       <r>     6.1848     0.0000    37.0000 </r>
       <r>     6.3047     0.0000    37.0000 </r>
       <r>     6.4245     0.0000    37.0000 </r>
       <r>     6.5443     0.0000    37.0000 </r>
       <r>     6.6641     0.0000    37.0000 </r>
       <r>     6.7839     0.0000    37.0000 </r>
       <r>     6.9037     0.0000    37.0000 </r>
       <r>     7.0235     0.0000    37.0000 </r>
       <r>     7.1433     0.0000    37.0000 </r>
       <r>     7.2631     0.0000    37.0000 </r>
       <r>     7.3829     8.3465    38.0000 </r>
       <r>     7.5028     0.0000    38.0000 </r>
       <r>     7.6226     0.0000    38.0000 </r>
       <r>     7.7424     0.0000    38.0000 </r>
       <r>     7.8622     0.0000    38.0000 </r>
       <r>     7.9820     0.0000    38.0000 </r>
       <r>     8.1018     0.0000    38.0000 </r>
       <r>     8.2216     0.0000    38.0000 </r>
       <r>     8.3414     0.0000    38.0000 </r>
       <r>     8.4612     8.3465    39.0000 </r>
       <r>     8.5811     0.0000    39.0000 </r>
       <r>     8.7009     0.0000    39.0000 </r>
       <r>     8.8207     0.0000    39.0000 </r>
       <r>     8.9405     0.0000    39.0000 </r>
       <r>     9.0603     0.0000    39.0000 </r>
       <r>     9.1801     0.0000    39.0000 </r>
       <r>     9.2999    16.6930    41.0000 </r>
       <r>     9.4197     0.0000    41.0000 </r>
       <r>     9.5395     0.0000    41.0000 </r>
       <r>     9.6594     0.0000    41.0000 </r>
       <r>     9.7792     0.0000    41.0000 </r>
       <r>     9.8990     0.0000    41.0000 </r>
       <r>    10.0188     0.0000    41.0000 </r>
       <r>    10.1386     0.0000    41.0000 </r>
       <r>    10.2584     0.0000    41.0000 </r>
       <r>    10.3782     0.0000    41.0000 </r>
       <r>    10.4980     0.0001    41.0000 </r>
       <r>    10.6178     0.0000    42.0000 </r>
       <r>    10.7376     0.0000    42.0000 </r>
       <r>    10.8575     0.4868    42.0583 </r>
       <r>    10.9773     0.0000    45.0000 </r>
       <r>    11.0971     0.0000    45.0000 </r>
       <r>    11.2169     0.0000    45.0000 </r>
       <r>    11.3367     0.0000    45.0000 </r>
       <r>    11.4565     0.0000    45.0000 </r>
       <r>    11.5763     0.0000    45.0000 </r>
       <r>    11.6961     8.3465    46.0000 </r>
       <r>    11.8159     0.0000    46.0000 </r>
       <r>    11.9358     0.0000    46.0000 </r>
       <r>    12.0556     0.0000    46.0000 </r>
       <r>    12.1754     0.0000    46.0000 </r>
       <r>    12.2952     0.0000    46.0000 </r>
       <r>    12.4150     0.0000    46.0000 </r>
       <r>    12.5348     8.3465    47.0000 </r>
       <r>    12.6546     8.3465    48.0000 </r>
       <r>    12.7744     0.0000    48.0000 </r>
       <r>    12.8942     0.0000    48.0000 </r>
       <r>    13.0140     0.0000    48.0000 </r>
       <r>    13.1339     0.0000    48.0000 </r>
       <r>    13.2537     0.0000    48.0000 </r>
       <r>    13.3735     0.0000    48.0000 </r>
       <r>    13.4933     0.0000    48.0000 </r>
       <r>    13.6131     0.0000    48.0000 </r>
       <r>    13.7329     0.0000    48.0000 </r>
       <r>    13.8527     0.0000    48.0000 </r>
       <r>    13.9725     0.0000    48.0000 </r>
       <r>    14.0923     0.0000    48.0000 </r>
       <r>    14.2122     0.0000    48.0000 </r>
      </set>
      <set comment="spin 2">
       <r>   -21.7310     0.0000     0.0000 </r>
       <r>   -21.6112     0.0000     0.0000 </r>
       <r>   -21.4914     0.0000     0.0000 </r>
       <r>   -21.3716     0.0000     0.0000 </r>
       <r>   -21.2518     0.0000     0.0000 </r>
       <r>   -21.1320     0.0000     0.0000 </r>
       <r>   -21.0122     0.0000     0.0000 </r>
       <r>   -20.8924     0.0000     0.0000 </r>
       <r>   -20.7726     0.0000     0.0000 </r>
       <r>   -20.6527     0.0000     0.0000 </r>
       <r>   -20.5329     0.0000     0.0000 </r>
       <r>   -20.4131     0.0000     0.0000 </r>
       <r>   -20.2933     0.0000     0.0000 </r>
       <r>   -20.1735     0.0000     0.0000 </r>
       <r>   -20.0537    25.0395     3.0000 </r>
       <r>   -19.9339    16.6930     5.0000 </r>
       <r>   -19.8141     0.0000     5.0000 </r>
       <r>   -19.6943     0.0000     5.0000 </r>
       <r>   -19.5745     0.0000     5.0000 </r>
       <r>   -19.4546     0.0000     5.0000 </r>
       <r>   -19.3348     0.0000     5.0000 </r>
       <r>   -19.2150     0.0000     5.0000 </r>
       <r>   -19.0952     0.0000     5.0000 </r>
       <r>   -18.9754     0.0000     5.0000 </r>
       <r>   -18.8556     0.0000     5.0000 </r>
       <r>   -18.7358     0.0000     5.0000 </r>
       <r>   -18.6160     0.0000     5.0000 </r>
       <r>   -18.4962     0.0000     5.0000 </r>
       <r>   -18.3763     0.0000     5.0000 </r>
       <r>   -18.2565     0.0000     5.0000 </r>
       <r>   -18.1367     0.0000     5.0000 </r>
       <r>   -18.0169     0.0000     5.0000 </r>
       <r>   -17.8971     0.0000     5.0000 </r>
       <r>   -17.7773     0.0000     5.0000 </r>
       <r>   -17.6575     0.0000     5.0000 </r>
       <r>   -17.5377     0.0000     5.0000 </r>
       <r>   -17.4179     0.0000     5.0000 </r>
       <r>   -17.2981     0.0000     5.0000 </r>
       <r>   -17.1782     0.0000     5.0000 </r>
       <r>   -17.0584     0.0000     5.0000 </r>
       <r>   -16.9386     0.0000     5.0000 </r>
       <r>   -16.8188     0.0000     5.0000 </r>
       <r>   -16.6990     0.0000     5.0000 </r>
       <r>   -16.5792     0.0000     5.0000 </r>
       <r>   -16.4594     0.0000     5.0000 </r>
       <r>   -16.3396     0.0000     5.0000 </r>
       <r>   -16.2198     0.0000     5.0000 </r>
       <r>   -16.0999     0.0000     5.0000 </r>
       <r>   -15.9801     0.0000     5.0000 </r>
       <r>   -15.8603     0.0000     5.0000 </r>
       <r>   -15.7405     0.0000     5.0000 </r>
       <r>   -15.6207     0.0000     5.0000 </r>
       <r>   -15.5009     0.0000     5.0000 </r>
       <r>   -15.3811     0.0000     5.0000 </r>
       <r>   -15.2613     0.0000     5.0000 </r>
       <r>   -15.1415     0.0000     5.0000 </r>
       <r>   -15.0216     0.0000     5.0000 </r>
       <r>   -14.9018     0.0000     5.0000 </r>
       <r>   -14.7820     0.0000     5.0000 </r>
       <r>   -14.6622     0.0000     5.0000 </r>
       <r>   -14.5424     0.0000     5.0000 </r>
       <r>   -14.4226     0.0000     5.0000 </r>
       <r>   -14.3028     0.0000     5.0000 </r>
       <r>   -14.1830     0.0000     5.0000 </r>
       <r>   -14.0632     0.0000     5.0000 </r>
       <r>   -13.9434     0.0000     5.0000 </r>
       <r>   -13.8235     0.0000     5.0000 </r>
       <r>   -13.7037     0.0000     5.0000 </r>
       <r>   -13.5839     0.0000     5.0000 </r>
       <r>   -13.4641     0.0000     5.0000 </r>
       <r>   -13.3443     0.0000     5.0000 </r>
       <r>   -13.2245     0.0000     5.0000 </r>
       <r>   -13.1047     0.0000     5.0000 </r>
       <r>   -12.9849     0.0000     5.0000 </r>
       <r>   -12.8651     0.0000     5.0000 </r>
       <r>   -12.7452     0.0000     5.0000 </r>
       <r>   -12.6254     0.0000     5.0000 </r>
       <r>   -12.5056     0.0000     5.0000 </r>
       <r>   -12.3858     0.0000     5.0000 </r>
       <r>   -12.2660     0.0000     5.0000 </r>
       <r>   -12.1462     0.0000     5.0000 </r>
       <r>   -12.0264     0.0000     5.0000 </r>
       <r>   -11.9066     0.0000     5.0000 </r>
       <r>   -11.7868     0.0000     5.0000 </r>
       <r>   -11.6669     0.0000     5.0000 </r>
       <r>   -11.5471     0.0000     5.0000 </r>
       <r>   -11.4273     8.3465     6.0000 </r>
       <r>   -11.3075     0.0000     6.0000 </r>
       <r>   -11.1877     0.0000     6.0000 </r>
       <r>   -11.0679     0.0000     6.0000 </r>
       <r>   -10.9481     0.0000     6.0000 </r>
       <r>   -10.8283     0.0000     6.0000 </r>
       <r>   -10.7085     0.0000     6.0000 </r>
       <r>   -10.5887     0.0000     6.0000 </r>
       <r>   -10.4688     0.0000     6.0000 </r>
       <r>   -10.3490     0.0000     6.0000 </r>
       <r>   -10.2292     0.0000     6.0000 </r>
       <r>   -10.1094     0.0000     6.0000 </r>
       <r>    -9.9896     0.0000     6.0000 </r>
       <r>    -9.8698     0.0000     6.0000 </r>
       <r>    -9.7500    25.0271     8.9985 </r>
       <r>    -9.6302     0.0000     9.0000 </r>
       <r>    -9.5104     0.0000     9.0000 </r>
       <r>    -9.3905     0.0000     9.0000 </r>
       <r>    -9.2707     0.0000     9.0000 </r>
       <r>    -9.1509     0.0000     9.0000 </r>
       <r>    -9.0311     0.0000     9.0000 </r>
       <r>    -8.9113     0.0000     9.0000 </r>
       <r>    -8.7915     0.0000     9.0000 </r>
       <r>    -8.6717     0.0000     9.0000 </r>
       <r>    -8.5519     0.0000     9.0000 </r>
       <r>    -8.4321     0.0000     9.0000 </r>
       <r>    -8.3123     0.0000     9.0000 </r>
       <r>    -8.1924     0.0000     9.0000 </r>
       <r>    -8.0726     0.0000     9.0000 </r>
       <r>    -7.9528     0.0000     9.0000 </r>
       <r>    -7.8330     0.0000     9.0000 </r>
       <r>    -7.7132     0.0000     9.0000 </r>
       <r>    -7.5934     0.0000     9.0000 </r>
       <r>    -7.4736     0.0000     9.0000 </r>
       <r>    -7.3538     0.0000     9.0000 </r>
       <r>    -7.2340     0.0000     9.0000 </r>
       <r>    -7.1141     0.0000     9.0000 </r>
       <r>    -6.9943     0.0000     9.0000 </r>
       <r>    -6.8745     0.0000     9.0000 </r>
       <r>    -6.7547     0.0000     9.0000 </r>
       <r>    -6.6349     0.0000     9.0000 </r>
       <r>    -6.5151     0.0000     9.0000 </r>
       <r>    -6.3953     0.0000     9.0000 </r>
       <r>    -6.2755     0.0000     9.0000 </r>
       <r>    -6.1557     0.0000     9.0000 </r>
       <r>    -6.0358     0.0000     9.0000 </r>
       <r>    -5.9160     0.0000     9.0000 </r>
       <r>    -5.7962     0.0000     9.0000 </r>
       <r>    -5.6764     0.0000     9.0000 </r>
       <r>    -5.5566     0.0000     9.0000 </r>
       <r>    -5.4368     0.0000     9.0000 </r>
       <r>    -5.3170     0.0000     9.0000 </r>
       <r>    -5.1972     0.0000     9.0000 </r>
       <r>    -5.0774     0.0000     9.0000 </r>
       <r>    -4.9576     0.0000     9.0000 </r>
       <r>    -4.8377     0.0000     9.0000 </r>
       <r>    -4.7179     0.0000     9.0000 </r>
       <r>    -4.5981     0.0000     9.0000 </r>
       <r>    -4.4783     9.7242    10.1651 </r>
       <r>    -4.3585    25.0395    14.0000 </r>
       <r>    -4.2387     0.0000    14.0000 </r>
       <r>    -4.1189     0.0000    14.0000 </r>
       <r>    -3.9991     8.3465    15.0000 </r>
       <r>    -3.8793     0.0000    15.0000 </r>
       <r>    -3.7594     0.0000    15.0000 </r>
       <r>    -3.6396     0.0000    15.0000 </r>
       <r>    -3.5198     0.0000    15.0000 </r>
       <r>    -3.4000     0.0000    15.0000 </r>
       <r>    -3.2802     0.0000    15.0000 </r>
       <r>    -3.1604     0.0000    15.0000 </r>
       <r>    -3.0406     0.0000    15.0000 </r>
       <r>    -2.9208     0.0000    15.0000 </r>
       <r>    -2.8010     0.0000    15.0000 </r>
       <r>    -2.6811     0.0000    15.0000 </r>
       <r>    -2.5613     0.0000    15.0000 </r>
       <r>    -2.4415     0.0000    15.0000 </r>
       <r>    -2.3217     0.0000    15.0000 </r>
       <r>    -2.2019     0.0000    15.0000 </r>
       <r>    -2.0821     0.0000    15.0000 </r>
       <r>    -1.9623     0.0000    15.0000 </r>
       <r>    -1.8425     0.0000    15.0000 </r>
       <r>    -1.7227     7.9274    15.9498 </r>
       <r>    -1.6029     0.0000    16.0000 </r>
       <r>    -1.4830     0.0000    16.0000 </r>
       <r>    -1.3632     0.0000    16.0000 </r>
       <r>    -1.2434     0.0000    16.0000 </r>
       <r>    -1.1236     2.7305    16.3271 </r>
       <r>    -1.0038     0.0000    18.0000 </r>
       <r>    -0.8840     0.0000    18.0000 </r>
       <r>    -0.7642     0.0000    18.0000 </r>
       <r>    -0.6444     6.8887    18.8253 </r>
       <r>    -0.5246     0.0000    19.0000 </r>
       <r>    -0.4047    16.6930    21.0000 </r>
       <r>    -0.2849     0.0000    21.0000 </r>
       <r>    -0.1651     0.0000    21.0000 </r>
       <r>    -0.0453    15.2062    22.8219 </r>
       <r>     0.0745     0.0000    23.0000 </r>
       <r>     0.1943     0.0000    23.0000 </r>
       <r>     0.3141     0.0000    23.0000 </r>
       <r>     0.4339    16.6922    25.9999 </r>
       <r>     0.5537     0.0000    26.0000 </r>
       <r>     0.6736     0.0000    26.0000 </r>
       <r>     0.7934     0.0000    26.0000 </r>
       <r>     0.9132     0.0000    26.0000 </r>
       <r>     1.0330     0.0000    26.0000 </r>
       <r>     1.1528     0.0000    26.0000 </r>
       <r>     1.2726     0.0000    26.0000 </r>
       <r>     1.3924    16.6930    28.0000 </r>
       <r>     1.5122     0.0000    28.0000 </r>
       <r>     1.6320     0.0000    28.0000 </r>
       <r>     1.7518     0.0000    29.0000 </r>
       <r>     1.8717     7.8912    29.9454 </r>
       <r>     1.9915    16.6930    32.0000 </r>
       <r>     2.1113     8.3465    33.0000 </r>
       <r>     2.2311     0.0000    33.0000 </r>
       <r>     2.3509     0.0000    33.0000 </r>
       <r>     2.4707     0.0000    33.0000 </r>
       <r>     2.5905     0.0000    33.0000 </r>
       <r>     2.7103     0.0000    33.0000 </r>
       <r>     2.8301     0.0000    33.0000 </r>
       <r>     2.9500     0.0000    33.0000 </r>
       <r>     3.0698     0.0000    33.0000 </r>
       <r>     3.1896     0.0000    33.0000 </r>
       <r>     3.3094     0.0000    33.0000 </r>
       <r>     3.4292     0.0000    33.0000 </r>
       <r>     3.5490     0.0000    33.0000 </r>
       <r>     3.6688     0.0000    33.0000 </r>
       <r>     3.7886     0.0000    33.0000 </r>
       <r>     3.9084     0.0001    33.0000 </r>
       <r>     4.0282     0.0015    35.0002 </r>
       <r>     4.1481     0.0000    36.0000 </r>
       <r>     4.2679     0.0000    36.0000 </r>
       <r>     4.3877     0.0000    36.0000 </r>
       <r>     4.5075     0.0000    36.0000 </r>
       <r>     4.6273     0.0000    36.0000 </r>
       <r>     4.7471     0.0000    36.0000 </r>
       <r>     4.8669     0.0000    36.0000 </r>
       <r>     4.9867     0.0000    36.0000 </r>
       <r>     5.1065     0.0000    36.0000 </r>
       <r>     5.2264     0.0000    36.0000 </r>
       <r>     5.3462     0.0000    36.0000 </r>
       <r>     5.4660     0.0000    36.0000 </r>
       <r>     5.5858     0.0000    36.0000 </r>
       <r>     5.7056     0.0000    36.0000 </r>
       <r>     5.8254     8.2663    36.9904 </r>
       <r>     5.9452     0.0000    37.0000 </r>
       <r>     6.0650     0.0000    37.0000 </r>
       <r>     6.1848     0.0000    37.0000 </r>
       <r>     6.3047     0.0000    37.0000 </r>
       <r>     6.4245     0.0000    37.0000 </r>
       <r>     6.5443     0.0000    37.0000 </r>
       <r>     6.6641     0.0000    37.0000 </r>
       <r>     6.7839     0.0000    37.0000 </r>
       <r>     6.9037     0.0000    37.0000 </r>
       <r>     7.0235     0.0000    37.0000 </r>
       <r>     7.1433     0.0000    37.0000 </r>
       <r>     7.2631     0.0000    37.0000 </r>
       <r>     7.3829     8.3465    38.0000 </r>
       <r>     7.5028     0.0000    38.0000 </r>
       <r>     7.6226     0.0000    38.0000 </r>
       <r>     7.7424     0.0000    38.0000 </r>
       <r>     7.8622     0.0000    38.0000 </r>
       <r>     7.9820     0.0000    38.0000 </r>
       <r>     8.1018     0.0000    38.0000 </r>
       <r>     8.2216     0.0000    38.0000 </r>
       <r>     8.3414     0.0000    38.0000 </r>
       <r>     8.4612     8.3465    39.0000 </r>
       <r>     8.5811     0.0000    39.0000 </r>
       <r>     8.7009     0.0000    39.0000 </r>
       <r>     8.8207     0.0000    39.0000 </r>
       <r>     8.9405     0.0000    39.0000 </r>
       <r>     9.0603     0.0000    39.0000 </r>
       <r>     9.1801     0.0000    39.0000 </r>
       <r>     9.2999    16.6930    41.0000 </r>
       <r>     9.4197     0.0000    41.0000 </r>
       <r>     9.5395     0.0000    41.0000 </r>
       <r>     9.6594     0.0000    41.0000 </r>
       <r>     9.7792     0.0000    41.0000 </r>
       <r>     9.8990     0.0000    41.0000 </r>
       <r>    10.0188     0.0000    41.0000 </r>
       <r>    10.1386     0.0000    41.0000 </r>
       <r>    10.2584     0.0000    41.0000 </r>
       <r>    10.3782     0.0000    41.0000 </r>
       <r>    10.4980     0.0001    41.0000 </r>
       <r>    10.6178     0.0000    42.0000 </r>
       <r>    10.7376     0.0000    42.0000 </r>
       <r>    10.8575     0.6284    42.0753 </r>
       <r>    10.9773     0.0000    45.0000 </r>
       <r>    11.0971     0.0000    45.0000 </r>
       <r>    11.2169     0.0000    45.0000 </r>
       <r>    11.3367     0.0000    45.0000 </r>
       <r>    11.4565     0.0000    45.0000 </r>
       <r>    11.5763     0.0000    45.0000 </r>
       <r>    11.6961     8.3465    46.0000 </r>
       <r>    11.8159     0.0000    46.0000 </r>
       <r>    11.9358     0.0000    46.0000 </r>
       <r>    12.0556     0.0000    46.0000 </r>
       <r>    12.1754     0.0000    46.0000 </r>
       <r>    12.2952     0.0000    46.0000 </r>
       <r>    12.4150     0.0000    46.0000 </r>
       <r>    12.5348     8.3465    47.0000 </r>
       <r>    12.6546     8.3465    48.0000 </r>
       <r>    12.7744     0.0000    48.0000 </r>
       <r>    12.8942     0.0000    48.0000 </r>
       <r>    13.0140     0.0000    48.0000 </r>
       <r>    13.1339     0.0000    48.0000 </r>
       <r>    13.2537     0.0000    48.0000 </r>
       <r>    13.3735     0.0000    48.0000 </r>
       <r>    13.4933     0.0000    48.0000 </r>
       <r>    13.6131     0.0000    48.0000 </r>
       <r>    13.7329     0.0000    48.0000 </r>
       <r>    13.8527     0.0000    48.0000 </r>
       <r>    13.9725     0.0000    48.0000 </r>
       <r>    14.0923     0.0000    48.0000 </r>
       <r>    14.2122     0.0000    48.0000 </r>
      </set>
     </set>
    </array>
   </total>
   <partial>
    <array>
     <dimension dim="1">gridpoints</dimension>
     <dimension dim="2">spin</dimension>
     <dimension dim="3">ion</dimension>
     <field>energy</field>
     <field>    s</field>
     <field>   py</field>
     <field>   pz</field>
     <field>   px</field>
     <field>  dxy</field>
     <field>  dyz</field>
     <field>  dz2</field>
     <field>  dxz</field>
     <field>x2-y2</field>
     <set>
      <set comment="ion 1">
       <set comment="spin 1">
        <r>   -21.7310     0.0000     0.0000     0.0000     0.0000     0.0000     0.0000     0.0000     0.0000     0.0000 </r>
        <r>   -21.6112     0.0000     0.0000     0.0000     0.0000     0.0000     0.0000     0.0000     0.0000     0.0000 </r>
        <r>   -21.4914     0.0000     0.0000     0.0000     0.0000     0.0000     0.0000     0.0000     0.0000     0.0000 </r>
        <r>   -21.3716     0.0000     0.0000     0.0000     0.0000     0.0000     0.0000     0.0000     0.0000     0.0000 </r>
        <r>   -21.2518     0.0000     0.0000     0.0000     0.0000     0.0000     0.0000     0.0000     0.0000     0.0000 </r>
        <r>   -21.1320     0.0000     0.0000     0.0000     0.0000     0.0000     0.0000     0.0000     0.0000     0.0000 </r>
        <r>   -21.0122     0.0000     0.0000     0.0000     0.0000     0.0000     0.0000     0.0000     0.0000     0.0000 </r>
        <r>   -20.8924     0.0000     0.0000     0.0000     0.0000     0.0000     0.0000     0.0000     0.0000     0.0000 </r>
        <r>   -20.7726     0.0000     0.0000     0.0000     0.0000     0.0000     0.0000     0.0000     0.0000     0.0000 </r>
        <r>   -20.6527     0.0000     0.0000     0.0000     0.0000     0.0000     0.0000     0.0000     0.0000     0.0000 </r>
        <r>   -20.5329     0.0000     0.0000     0.0000     0.0000     0.0000     0.0000     0.0000     0.0000     0.0000 </r>
        <r>   -20.4131     0.0000     0.0000     0.0000     0.0000     0.0000     0.0000     0.0000     0.0000     0.0000 </r>
        <r>   -20.2933     0.0000     0.0000     0.0000     0.0000     0.0000     0.0000     0.0000     0.0000     0.0000 </r>
        <r>   -20.1735     0.0000     0.0000     0.0000     0.0000     0.0000     0.0000     0.0000     0.0000     0.0000 </r>
        <r>   -20.0537     0.0000     0.0001     0.0001     0.0001     0.0000     0.0000     0.0000     0.0000     0.0000 </r>
        <r>   -19.9339     0.0000     0.0000     0.0000     0.0000     0.0000     0.0000     0.0000     0.0000     0.0000 </r>
        <r>   -19.8141     0.0000     0.0000     0.0000     0.0000     0.0000     0.0000     0.0000     0.0000     0.0000 </r>
        <r>   -19.6943     0.0000     0.0000     0.0000     0.0000     0.0000     0.0000     0.0000     0.0000     0.0000 </r>
        <r>   -19.5745     0.0000     0.0000     0.0000     0.0000     0.0000     0.0000     0.0000     0.0000     0.0000 </r>
        <r>   -19.4546     0.0000     0.0000     0.0000     0.0000     0.0000     0.0000     0.0000     0.0000     0.0000 </r>
        <r>   -19.3348     0.0000     0.0000     0.0000     0.0000     0.0000     0.0000     0.0000     0.0000     0.0000 </r>
        <r>   -19.2150     0.0000     0.0000     0.0000     0.0000     0.0000     0.0000     0.0000     0.0000     0.0000 </r>
        <r>   -19.0952     0.0000     0.0000     0.0000     0.0000     0.0000     0.0000     0.0000     0.0000     0.0000 </r>
        <r>   -18.9754     0.0000     0.0000     0.0000     0.0000     0.0000     0.0000     0.0000     0.0000     0.0000 </r>
        <r>   -18.8556     0.0000     0.0000     0.0000     0.0000     0.0000     0.0000     0.0000     0.0000     0.0000 </r>
        <r>   -18.7358     0.0000     0.0000     0.0000     0.0000     0.0000     0.0000     0.0000     0.0000     0.0000 </r>
        <r>   -18.6160     0.0000     0.0000     0.0000     0.0000     0.0000     0.0000     0.0000     0.0000     0.0000 </r>
        <r>   -18.4962     0.0000     0.0000     0.0000     0.0000     0.0000     0.0000     0.0000     0.0000     0.0000 </r>
        <r>   -18.3763     0.0000     0.0000     0.0000     0.0000     0.0000     0.0000     0.0000     0.0000     0.0000 </r>
        <r>   -18.2565     0.0000     0.0000     0.0000     0.0000     0.0000     0.0000     0.0000     0.0000     0.0000 </r>
        <r>   -18.1367     0.0000     0.0000     0.0000     0.0000     0.0000     0.0000     0.0000     0.0000     0.0000 </r>
        <r>   -18.0169     0.0000     0.0000     0.0000     0.0000     0.0000     0.0000     0.0000     0.0000     0.0000 </r>
        <r>   -17.8971     0.0000     0.0000     0.0000     0.0000     0.0000     0.0000     0.0000     0.0000     0.0000 </r>
        <r>   -17.7773     0.0000     0.0000     0.0000     0.0000     0.0000     0.0000     0.0000     0.0000     0.0000 </r>
        <r>   -17.6575     0.0000     0.0000     0.0000     0.0000     0.0000     0.0000     0.0000     0.0000     0.0000 </r>
        <r>   -17.5377     0.0000     0.0000     0.0000     0.0000     0.0000     0.0000     0.0000     0.0000     0.0000 </r>
        <r>   -17.4179     0.0000     0.0000     0.0000     0.0000     0.0000     0.0000     0.0000     0.0000     0.0000 </r>
        <r>   -17.2981     0.0000     0.0000     0.0000     0.0000     0.0000     0.0000     0.0000     0.0000     0.0000 </r>
        <r>   -17.1782     0.0000     0.0000     0.0000     0.0000     0.0000     0.0000     0.0000     0.0000     0.0000 </r>
        <r>   -17.0584     0.0000     0.0000     0.0000     0.0000     0.0000     0.0000     0.0000     0.0000     0.0000 </r>
        <r>   -16.9386     0.0000     0.0000     0.0000     0.0000     0.0000     0.0000     0.0000     0.0000     0.0000 </r>
        <r>   -16.8188     0.0000     0.0000     0.0000     0.0000     0.0000     0.0000     0.0000     0.0000     0.0000 </r>
        <r>   -16.6990     0.0000     0.0000     0.0000     0.0000     0.0000     0.0000     0.0000     0.0000     0.0000 </r>
        <r>   -16.5792     0.0000     0.0000     0.0000     0.0000     0.0000     0.0000     0.0000     0.0000     0.0000 </r>
        <r>   -16.4594     0.0000     0.0000     0.0000     0.0000     0.0000     0.0000     0.0000     0.0000     0.0000 </r>
        <r>   -16.3396     0.0000     0.0000     0.0000     0.0000     0.0000     0.0000     0.0000     0.0000     0.0000 </r>
        <r>   -16.2198     0.0000     0.0000     0.0000     0.0000     0.0000     0.0000     0.0000     0.0000     0.0000 </r>
        <r>   -16.0999     0.0000     0.0000     0.0000     0.0000     0.0000     0.0000     0.0000     0.0000     0.0000 </r>
        <r>   -15.9801     0.0000     0.0000     0.0000     0.0000     0.0000     0.0000     0.0000     0.0000     0.0000 </r>
        <r>   -15.8603     0.0000     0.0000     0.0000     0.0000     0.0000     0.0000     0.0000     0.0000     0.0000 </r>
        <r>   -15.7405     0.0000     0.0000     0.0000     0.0000     0.0000     0.0000     0.0000     0.0000     0.0000 </r>
        <r>   -15.6207     0.0000     0.0000     0.0000     0.0000     0.0000     0.0000     0.0000     0.0000     0.0000 </r>
        <r>   -15.5009     0.0000     0.0000     0.0000     0.0000     0.0000     0.0000     0.0000     0.0000     0.0000 </r>
        <r>   -15.3811     0.0000     0.0000     0.0000     0.0000     0.0000     0.0000     0.0000     0.0000     0.0000 </r>
        <r>   -15.2613     0.0000     0.0000     0.0000     0.0000     0.0000     0.0000     0.0000     0.0000     0.0000 </r>
        <r>   -15.1415     0.0000     0.0000     0.0000     0.0000     0.0000     0.0000     0.0000     0.0000     0.0000 </r>
        <r>   -15.0216     0.0000     0.0000     0.0000     0.0000     0.0000     0.0000     0.0000     0.0000     0.0000 </r>
        <r>   -14.9018     0.0000     0.0000     0.0000     0.0000     0.0000     0.0000     0.0000     0.0000     0.0000 </r>
        <r>   -14.7820     0.0000     0.0000     0.0000     0.0000     0.0000     0.0000     0.0000     0.0000     0.0000 </r>
        <r>   -14.6622     0.0000     0.0000     0.0000     0.0000     0.0000     0.0000     0.0000     0.0000     0.0000 </r>
        <r>   -14.5424     0.0000     0.0000     0.0000     0.0000     0.0000     0.0000     0.0000     0.0000     0.0000 </r>
        <r>   -14.4226     0.0000     0.0000     0.0000     0.0000     0.0000     0.0000     0.0000     0.0000     0.0000 </r>
        <r>   -14.3028     0.0000     0.0000     0.0000     0.0000     0.0000     0.0000     0.0000     0.0000     0.0000 </r>
        <r>   -14.1830     0.0000     0.0000     0.0000     0.0000     0.0000     0.0000     0.0000     0.0000     0.0000 </r>
        <r>   -14.0632     0.0000     0.0000     0.0000     0.0000     0.0000     0.0000     0.0000     0.0000     0.0000 </r>
        <r>   -13.9434     0.0000     0.0000     0.0000     0.0000     0.0000     0.0000     0.0000     0.0000     0.0000 </r>
        <r>   -13.8235     0.0000     0.0000     0.0000     0.0000     0.0000     0.0000     0.0000     0.0000     0.0000 </r>
        <r>   -13.7037     0.0000     0.0000     0.0000     0.0000     0.0000     0.0000     0.0000     0.0000     0.0000 </r>
        <r>   -13.5839     0.0000     0.0000     0.0000     0.0000     0.0000     0.0000     0.0000     0.0000     0.0000 </r>
        <r>   -13.4641     0.0000     0.0000     0.0000     0.0000     0.0000     0.0000     0.0000     0.0000     0.0000 </r>
        <r>   -13.3443     0.0000     0.0000     0.0000     0.0000     0.0000     0.0000     0.0000     0.0000     0.0000 </r>
        <r>   -13.2245     0.0000     0.0000     0.0000     0.0000     0.0000     0.0000     0.0000     0.0000     0.0000 </r>
        <r>   -13.1047     0.0000     0.0000     0.0000     0.0000     0.0000     0.0000     0.0000     0.0000     0.0000 </r>
        <r>   -12.9849     0.0000     0.0000     0.0000     0.0000     0.0000     0.0000     0.0000     0.0000     0.0000 </r>
        <r>   -12.8651     0.0000     0.0000     0.0000     0.0000     0.0000     0.0000     0.0000     0.0000     0.0000 </r>
        <r>   -12.7452     0.0000     0.0000     0.0000     0.0000     0.0000     0.0000     0.0000     0.0000     0.0000 </r>
        <r>   -12.6254     0.0000     0.0000     0.0000     0.0000     0.0000     0.0000     0.0000     0.0000     0.0000 </r>
        <r>   -12.5056     0.0000     0.0000     0.0000     0.0000     0.0000     0.0000     0.0000     0.0000     0.0000 </r>
        <r>   -12.3858     0.0000     0.0000     0.0000     0.0000     0.0000     0.0000     0.0000     0.0000     0.0000 </r>
        <r>   -12.2660     0.0000     0.0000     0.0000     0.0000     0.0000     0.0000     0.0000     0.0000     0.0000 </r>
        <r>   -12.1462     0.0000     0.0000     0.0000     0.0000     0.0000     0.0000     0.0000     0.0000     0.0000 </r>
        <r>   -12.0264     0.0000     0.0000     0.0000     0.0000     0.0000     0.0000     0.0000     0.0000     0.0000 </r>
        <r>   -11.9066     0.0000     0.0000     0.0000     0.0000     0.0000     0.0000     0.0000     0.0000     0.0000 </r>
        <r>   -11.7868     0.0000     0.0000     0.0000     0.0000     0.0000     0.0000     0.0000     0.0000     0.0000 </r>
        <r>   -11.6669     0.0000     0.0000     0.0000     0.0000     0.0000     0.0000     0.0000     0.0000     0.0000 </r>
        <r>   -11.5471     0.0000     0.0000     0.0000     0.0000     0.0000     0.0000     0.0000     0.0000     0.0000 </r>
        <r>   -11.4273     0.1904     0.0000     0.0000     0.0000     0.0000     0.0000     0.0000     0.0000     0.0000 </r>
        <r>   -11.3075     0.0000     0.0000     0.0000     0.0000     0.0000     0.0000     0.0000     0.0000     0.0000 </r>
        <r>   -11.1877     0.0000     0.0000     0.0000     0.0000     0.0000     0.0000     0.0000     0.0000     0.0000 </r>
        <r>   -11.0679     0.0000     0.0000     0.0000     0.0000     0.0000     0.0000     0.0000     0.0000     0.0000 </r>
        <r>   -10.9481     0.0000     0.0000     0.0000     0.0000     0.0000     0.0000     0.0000     0.0000     0.0000 </r>
        <r>   -10.8283     0.0000     0.0000     0.0000     0.0000     0.0000     0.0000     0.0000     0.0000     0.0000 </r>
        <r>   -10.7085     0.0000     0.0000     0.0000     0.0000     0.0000     0.0000     0.0000     0.0000     0.0000 </r>
        <r>   -10.5887     0.0000     0.0000     0.0000     0.0000     0.0000     0.0000     0.0000     0.0000     0.0000 </r>
        <r>   -10.4688     0.0000     0.0000     0.0000     0.0000     0.0000     0.0000     0.0000     0.0000     0.0000 </r>
        <r>   -10.3490     0.0000     0.0000     0.0000     0.0000     0.0000     0.0000     0.0000     0.0000     0.0000 </r>
        <r>   -10.2292     0.0000     0.0000     0.0000     0.0000     0.0000     0.0000     0.0000     0.0000     0.0000 </r>
        <r>   -10.1094     0.0000     0.0000     0.0000     0.0000     0.0000     0.0000     0.0000     0.0000     0.0000 </r>
        <r>    -9.9896     0.0000     0.0000     0.0000     0.0000     0.0000     0.0000     0.0000     0.0000     0.0000 </r>
        <r>    -9.8698     0.0000     0.0000     0.0000     0.0000     0.0000     0.0000     0.0000     0.0000     0.0000 </r>
        <r>    -9.7500     0.0000     0.0740     0.0737     0.0740     0.1070     0.0851     0.0905     0.0882     0.0705 </r>
        <r>    -9.6302     0.0000     0.0000     0.0000     0.0000     0.0000     0.0000     0.0000     0.0000     0.0000 </r>
        <r>    -9.5104     0.0000     0.0000     0.0000     0.0000     0.0000     0.0000     0.0000     0.0000     0.0000 </r>
        <r>    -9.3905     0.0000     0.0000     0.0000     0.0000     0.0000     0.0000     0.0000     0.0000     0.0000 </r>
        <r>    -9.2707     0.0000     0.0000     0.0000     0.0000     0.0000     0.0000     0.0000     0.0000     0.0000 </r>
        <r>    -9.1509     0.0000     0.0000     0.0000     0.0000     0.0000     0.0000     0.0000     0.0000     0.0000 </r>
        <r>    -9.0311     0.0000     0.0000     0.0000     0.0000     0.0000     0.0000     0.0000     0.0000     0.0000 </r>
        <r>    -8.9113     0.0000     0.0000     0.0000     0.0000     0.0000     0.0000     0.0000     0.0000     0.0000 </r>
        <r>    -8.7915     0.0000     0.0000     0.0000     0.0000     0.0000     0.0000     0.0000     0.0000     0.0000 </r>
        <r>    -8.6717     0.0000     0.0000     0.0000     0.0000     0.0000     0.0000     0.0000     0.0000     0.0000 </r>
        <r>    -8.5519     0.0000     0.0000     0.0000     0.0000     0.0000     0.0000     0.0000     0.0000     0.0000 </r>
        <r>    -8.4321     0.0000     0.0000     0.0000     0.0000     0.0000     0.0000     0.0000     0.0000     0.0000 </r>
        <r>    -8.3123     0.0000     0.0000     0.0000     0.0000     0.0000     0.0000     0.0000     0.0000     0.0000 </r>
        <r>    -8.1924     0.0000     0.0000     0.0000     0.0000     0.0000     0.0000     0.0000     0.0000     0.0000 </r>
        <r>    -8.0726     0.0000     0.0000     0.0000     0.0000     0.0000     0.0000     0.0000     0.0000     0.0000 </r>
        <r>    -7.9528     0.0000     0.0000     0.0000     0.0000     0.0000     0.0000     0.0000     0.0000     0.0000 </r>
        <r>    -7.8330     0.0000     0.0000     0.0000     0.0000     0.0000     0.0000     0.0000     0.0000     0.0000 </r>
        <r>    -7.7132     0.0000     0.0000     0.0000     0.0000     0.0000     0.0000     0.0000     0.0000     0.0000 </r>
        <r>    -7.5934     0.0000     0.0000     0.0000     0.0000     0.0000     0.0000     0.0000     0.0000     0.0000 </r>
        <r>    -7.4736     0.0000     0.0000     0.0000     0.0000     0.0000     0.0000     0.0000     0.0000     0.0000 </r>
        <r>    -7.3538     0.0000     0.0000     0.0000     0.0000     0.0000     0.0000     0.0000     0.0000     0.0000 </r>
        <r>    -7.2340     0.0000     0.0000     0.0000     0.0000     0.0000     0.0000     0.0000     0.0000     0.0000 </r>
        <r>    -7.1141     0.0000     0.0000     0.0000     0.0000     0.0000     0.0000     0.0000     0.0000     0.0000 </r>
        <r>    -6.9943     0.0000     0.0000     0.0000     0.0000     0.0000     0.0000     0.0000     0.0000     0.0000 </r>
        <r>    -6.8745     0.0000     0.0000     0.0000     0.0000     0.0000     0.0000     0.0000     0.0000     0.0000 </r>
        <r>    -6.7547     0.0000     0.0000     0.0000     0.0000     0.0000     0.0000     0.0000     0.0000     0.0000 </r>
        <r>    -6.6349     0.0000     0.0000     0.0000     0.0000     0.0000     0.0000     0.0000     0.0000     0.0000 </r>
        <r>    -6.5151     0.0000     0.0000     0.0000     0.0000     0.0000     0.0000     0.0000     0.0000     0.0000 </r>
        <r>    -6.3953     0.0000     0.0000     0.0000     0.0000     0.0000     0.0000     0.0000     0.0000     0.0000 </r>
        <r>    -6.2755     0.0000     0.0000     0.0000     0.0000     0.0000     0.0000     0.0000     0.0000     0.0000 </r>
        <r>    -6.1557     0.0000     0.0000     0.0000     0.0000     0.0000     0.0000     0.0000     0.0000     0.0000 </r>
        <r>    -6.0358     0.0000     0.0000     0.0000     0.0000     0.0000     0.0000     0.0000     0.0000     0.0000 </r>
        <r>    -5.9160     0.0000     0.0000     0.0000     0.0000     0.0000     0.0000     0.0000     0.0000     0.0000 </r>
        <r>    -5.7962     0.0000     0.0000     0.0000     0.0000     0.0000     0.0000     0.0000     0.0000     0.0000 </r>
        <r>    -5.6764     0.0000     0.0000     0.0000     0.0000     0.0000     0.0000     0.0000     0.0000     0.0000 </r>
        <r>    -5.5566     0.0000     0.0000     0.0000     0.0000     0.0000     0.0000     0.0000     0.0000     0.0000 </r>
        <r>    -5.4368     0.0000     0.0000     0.0000     0.0000     0.0000     0.0000     0.0000     0.0000     0.0000 </r>
        <r>    -5.3170     0.0000     0.0000     0.0000     0.0000     0.0000     0.0000     0.0000     0.0000     0.0000 </r>
        <r>    -5.1972     0.0000     0.0000     0.0000     0.0000     0.0000     0.0000     0.0000     0.0000     0.0000 </r>
        <r>    -5.0774     0.0000     0.0000     0.0000     0.0000     0.0000     0.0000     0.0000     0.0000     0.0000 </r>
        <r>    -4.9576     0.0000     0.0000     0.0000     0.0000     0.0000     0.0000     0.0000     0.0000     0.0000 </r>
        <r>    -4.8377     0.0000     0.0000     0.0000     0.0000     0.0000     0.0000     0.0000     0.0000     0.0000 </r>
        <r>    -4.7179     0.0000     0.0000     0.0000     0.0000     0.0000     0.0000     0.0000     0.0000     0.0000 </r>
        <r>    -4.5981     0.0000     0.0000     0.0000     0.0000     0.0000     0.0000     0.0000     0.0000     0.0000 </r>
[...]
        <r>  0.0000  0.0000  0.0000  0.0000  0.1391  0.0157  0.0160  0.0298  0.0000 </r>
        <r>  0.0000  0.0013  0.0045  0.0009  0.0048  0.0003  0.0005  0.0014  0.0002 </r>
        <r>  0.0002  0.0031  0.0327  0.0150  0.0000  0.0000  0.0000  0.0000  0.0000 </r>
        <r>  0.0002  0.0193  0.0302  0.0013  0.0000  0.0000  0.0000  0.0000  0.0000 </r>
        <r>  0.0002  0.0172  0.0204  0.0132  0.0000  0.0000  0.0000  0.0000  0.0000 </r>
        <r>  0.0002  0.0040  0.0449  0.0019  0.0000  0.0000  0.0000  0.0000  0.0000 </r>
       </set>
       <set comment="band 25">
        <r>  0.0000  0.0278  0.0088  0.0001  0.0057  0.0000  0.0145  0.0053  0.0006 </r>
        <r>  0.0000  0.0023  0.0036  0.0057  0.0058  0.0097  0.0074  0.0308  0.0163 </r>
        <r>  0.0000  0.0001  0.0010  0.0038  0.0596  0.0004  0.1508  0.0553  0.0059 </r>
        <r>  0.0000  0.0000  0.0001  0.0003  0.0002  0.0003  0.0003  0.0010  0.0005 </r>
        <r>  0.0000  0.0007  0.0099  0.0231  0.0000  0.0000  0.0000  0.0000  0.0000 </r>
        <r>  0.0000  0.0114  0.0203  0.0020  0.0000  0.0000  0.0000  0.0000  0.0000 </r>
        <r>  0.0008  0.0779  0.0145  0.0130  0.0000  0.0000  0.0000  0.0000  0.0000 </r>
        <r>  0.0008  0.0475  0.0537  0.0041  0.0000  0.0000  0.0000  0.0000  0.0000 </r>
       </set>
       <set comment="band 26">
        <r>  0.0000  0.0015  0.0035  0.0317  0.0002  0.0087  0.0029  0.0063  0.0081 </r>
        <r>  0.0000  0.0070  0.0003  0.0044  0.0100  0.0136  0.0393  0.0003  0.0068 </r>
        <r>  0.0000  0.0039  0.0006  0.0005  0.0020  0.0903  0.0305  0.0656  0.0835 </r>
        <r>  0.0000  0.0003  0.0000  0.0001  0.0003  0.0005  0.0012  0.0000  0.0003 </r>
        <r>  0.0008  0.0113  0.0000  0.0940  0.0000  0.0000  0.0000  0.0000  0.0000 </r>
        <r>  0.0008  0.0281  0.0114  0.0659  0.0000  0.0000  0.0000  0.0000  0.0000 </r>
        <r>  0.0000  0.0237  0.0040  0.0060  0.0000  0.0000  0.0000  0.0000  0.0000 </r>
        <r>  0.0000  0.0006  0.0322  0.0010  0.0000  0.0000  0.0000  0.0000  0.0000 </r>
       </set>
       <set comment="band 27">
        <r>  0.0034  0.0000  0.0000  0.0000  0.0000  0.0000  0.0000  0.0000  0.0000 </r>
        <r>  0.0019  0.0000  0.0000  0.0000  0.0687  0.3439  0.2150  0.2294  0.0029 </r>
        <r>  0.0019  0.0000  0.0000  0.0000  0.0012  0.0063  0.0039  0.0042  0.0001 </r>
        <r>  0.0291  0.0000  0.0000  0.0000  0.0000  0.0000  0.0000  0.0000  0.0000 </r>
        <r>  0.0007  0.0010  0.0004  0.0004  0.0000  0.0000  0.0000  0.0000  0.0000 </r>
        <r>  0.0007  0.0007  0.0008  0.0002  0.0000  0.0000  0.0000  0.0000  0.0000 </r>
        <r>  0.0007  0.0006  0.0000  0.0010  0.0000  0.0000  0.0000  0.0000  0.0000 </r>
        <r>  0.0007  0.0004  0.0000  0.0013  0.0000  0.0000  0.0000  0.0000  0.0000 </r>
       </set>
       <set comment="band 28">
        <r>  0.0000  0.0005  0.0018  0.0004  0.0000  0.0000  0.0000  0.0000  0.0001 </r>
        <r>  0.0000  0.0002  0.0007  0.0001  0.2611  0.0017  0.0244  0.1237  0.0632 </r>
        <r>  0.0000  0.0000  0.0001  0.0000  0.1343  0.1076  0.0229  0.0001  0.1498 </r>
        <r>  0.0000  0.0010  0.0032  0.0006  0.0000  0.0000  0.0000  0.0000  0.0000 </r>
        <r>  0.0002  0.0004  0.0000  0.0003  0.0000  0.0000  0.0000  0.0000  0.0000 </r>
        <r>  0.0002  0.0002  0.0000  0.0004  0.0000  0.0000  0.0000  0.0000  0.0000 </r>
        <r>  0.0002  0.0002  0.0004  0.0002  0.0000  0.0000  0.0000  0.0000  0.0000 </r>
        <r>  0.0002  0.0003  0.0001  0.0003  0.0000  0.0000  0.0000  0.0000  0.0000 </r>
       </set>
       <set comment="band 29">
        <r>  0.0143  0.0000  0.0000  0.0000  0.0000  0.0000  0.0000  0.0000  0.0000 </r>
        <r>  0.0060  0.0000  0.0000  0.0000  0.0022  0.0108  0.0067  0.0072  0.0001 </r>
        <r>  0.0000  0.0000  0.0000  0.0000  0.0701  0.3504  0.2191  0.2336  0.0029 </r>
        <r>  0.0020  0.0000  0.0000  0.0000  0.0000  0.0000  0.0000  0.0000  0.0000 </r>
        <r>  0.0000  0.0004  0.0000  0.0012  0.0000  0.0000  0.0000  0.0000  0.0000 </r>
        <r>  0.0000  0.0000  0.0012  0.0004  0.0000  0.0000  0.0000  0.0000  0.0000 </r>
        <r>  0.0000  0.0015  0.0001  0.0001  0.0000  0.0000  0.0000  0.0000  0.0000 </r>
        <r>  0.0000  0.0004  0.0007  0.0005  0.0000  0.0000  0.0000  0.0000  0.0000 </r>
       </set>
       <set comment="band 30">
        <r>  0.0000  0.0015  0.0049  0.0010  0.0025  0.0014  0.0004  0.0000  0.0015 </r>
        <r>  0.0000  0.0004  0.0014  0.0003  0.0173  0.0343  0.0002  0.0696  0.1912 </r>
        <r>  0.0000  0.0004  0.0014  0.0003  0.0113  0.0696  0.0000  0.0986  0.3253 </r>
        <r>  0.0000  0.0035  0.0115  0.0023  0.0015  0.0000  0.0002  0.0006  0.0002 </r>
        <r>  0.0002  0.0056  0.0079  0.0025  0.0000  0.0000  0.0000  0.0000  0.0000 </r>
        <r>  0.0002  0.0159  0.0000  0.0001  0.0000  0.0000  0.0000  0.0000  0.0000 </r>
        <r>  0.0002  0.0012  0.0000  0.0149  0.0000  0.0000  0.0000  0.0000  0.0000 </r>
        <r>  0.0002  0.0003  0.0094  0.0064  0.0000  0.0000  0.0000  0.0000  0.0000 </r>
       </set>
       <set comment="band 31">
        <r>  0.0000  0.0023  0.0006  0.0000  0.0001  0.0004  0.0005  0.0001  0.0002 </r>
        <r>  0.0000  0.0096  0.0050  0.0014  0.0745  0.0187  0.2274  0.0197  0.0016 </r>
        <r>  0.0000  0.0031  0.0038  0.0048  0.0753  0.0055  0.2092  0.0418  0.0006 </r>
        <r>  0.0000  0.0007  0.0010  0.0015  0.0002  0.0001  0.0004  0.0005  0.0002 </r>
        <r>  0.0020  0.0166  0.0014  0.0100  0.0000  0.0000  0.0000  0.0000  0.0000 </r>
        <r>  0.0020  0.0052  0.0199  0.0029  0.0000  0.0000  0.0000  0.0000  0.0000 </r>
        <r>  0.0006  0.0014  0.0110  0.0080  0.0000  0.0000  0.0000  0.0000  0.0000 </r>
        <r>  0.0006  0.0049  0.0021  0.0134  0.0000  0.0000  0.0000  0.0000  0.0000 </r>
       </set>
       <set comment="band 32">
        <r>  0.0000  0.0000  0.0004  0.0024  0.0002  0.0001  0.0004  0.0005  0.0002 </r>
        <r>  0.0000  0.0032  0.0004  0.0124  0.0030  0.0953  0.0005  0.1323  0.1109 </r>
        <r>  0.0000  0.0063  0.0001  0.0053  0.0000  0.1053  0.0125  0.1060  0.1087 </r>
        <r>  0.0000  0.0019  0.0001  0.0013  0.0001  0.0004  0.0005  0.0001  0.0003 </r>
        <r>  0.0006  0.0163  0.0000  0.0042  0.0000  0.0000  0.0000  0.0000  0.0000 </r>
        <r>  0.0006  0.0091  0.0031  0.0083  0.0000  0.0000  0.0000  0.0000  0.0000 </r>
        <r>  0.0020  0.0153  0.0029  0.0098  0.0000  0.0000  0.0000  0.0000  0.0000 </r>
        <r>  0.0020  0.0045  0.0024  0.0211  0.0000  0.0000  0.0000  0.0000  0.0000 </r>
       </set>
       <set comment="band 33">
        <r>  0.0000  0.0012  0.0038  0.0008  0.0027  0.0000  0.0003  0.0012  0.0005 </r>
        <r>  0.0000  0.0015  0.0049  0.0010  0.0363  0.1018  0.0096  0.0189  0.2341 </r>
        <r>  0.0000  0.0021  0.0069  0.0014  0.1454  0.0009  0.0117  0.1005  0.0927 </r>
        <r>  0.0000  0.0007  0.0023  0.0005  0.0001  0.0007  0.0000  0.0003  0.0021 </r>
        <r>  0.0005  0.0002  0.0007  0.0173  0.0000  0.0000  0.0000  0.0000  0.0000 </r>
        <r>  0.0005  0.0010  0.0035  0.0136  0.0000  0.0000  0.0000  0.0000  0.0000 </r>
        <r>  0.0005  0.0159  0.0023  0.0001  0.0000  0.0000  0.0000  0.0000  0.0000 </r>
        <r>  0.0005  0.0117  0.0065  0.0001  0.0000  0.0000  0.0000  0.0000  0.0000 </r>
       </set>
       <set comment="band 34">
        <r>  0.0000  0.0029  0.0002  0.0013  0.0007  0.0044  0.0004  0.0086  0.0059 </r>
        <r>  0.0000  0.0041  0.0001  0.0029  0.0049  0.0377  0.0024  0.0692  0.0491 </r>
        <r>  0.0000  0.0044  0.0001  0.0045  0.0103  0.0385  0.0089  0.0882  0.0553 </r>
        <r>  0.0000  0.0007  0.0000  0.0014  0.0011  0.0029  0.0011  0.0075  0.0044 </r>
        <r>  0.0003  0.0532  0.0011  0.0414  0.0000  0.0000  0.0000  0.0000  0.0000 </r>
        <r>  0.0003  0.0516  0.0016  0.0425  0.0000  0.0000  0.0000  0.0000  0.0000 </r>
        <r>  0.0016  0.0492  0.0006  0.0314  0.0000  0.0000  0.0000  0.0000  0.0000 </r>
        <r>  0.0016  0.0415  0.0028  0.0368  0.0000  0.0000  0.0000  0.0000  0.0000 </r>
       </set>
       <set comment="band 35">
        <r>  0.0000  0.0006  0.0013  0.0025  0.0038  0.0022  0.0129  0.0003  0.0007 </r>
        <r>  0.0000  0.0016  0.0022  0.0033  0.0321  0.0167  0.1065  0.0035  0.0046 </r>
        <r>  0.0000  0.0028  0.0029  0.0032  0.0353  0.0286  0.1253  0.0012  0.0109 </r>
        <r>  0.0000  0.0010  0.0007  0.0004  0.0028  0.0027  0.0102  0.0001  0.0012 </r>
        <r>  0.0016  0.0219  0.0205  0.0388  0.0000  0.0000  0.0000  0.0000  0.0000 </r>
        <r>  0.0016  0.0169  0.0310  0.0332  0.0000  0.0000  0.0000  0.0000  0.0000 </r>
        <r>  0.0003  0.0237  0.0317  0.0404  0.0000  0.0000  0.0000  0.0000  0.0000 </r>
        <r>  0.0003  0.0247  0.0295  0.0416  0.0000  0.0000  0.0000  0.0000  0.0000 </r>
       </set>
       <set comment="band 36">
        <r>  0.0000  0.0005  0.0017  0.0003  0.0119  0.0018  0.0014  0.0021  0.0001 </r>
        <r>  0.0000  0.0020  0.0068  0.0014  0.1234  0.0190  0.0148  0.0212  0.0012 </r>
        <r>  0.0000  0.0016  0.0054  0.0011  0.1389  0.0345  0.0180  0.0142  0.0127 </r>
        <r>  0.0000  0.0005  0.0017  0.0003  0.0086  0.0024  0.0011  0.0007  0.0011 </r>
        <r>  0.0002  0.0268  0.0469  0.0116  0.0000  0.0000  0.0000  0.0000  0.0000 </r>
        <r>  0.0002  0.0090  0.0655  0.0108  0.0000  0.0000  0.0000  0.0000  0.0000 </r>
        <r>  0.0002  0.0191  0.0615  0.0047  0.0000  0.0000  0.0000  0.0000  0.0000 </r>
        <r>  0.0002  0.0146  0.0504  0.0203  0.0000  0.0000  0.0000  0.0000  0.0000 </r>
       </set>
       <set comment="band 37">
        <r>  0.0332  0.0000  0.0000  0.0000  0.0001  0.0006  0.0004  0.0004  0.0000 </r>
        <r>  0.0356  0.0000  0.0000  0.0000  0.0022  0.0109  0.0068  0.0073  0.0001 </r>
        <r>  0.0223  0.0000  0.0000  0.0000  0.0005  0.0023  0.0014  0.0015  0.0000 </r>
        <r>  0.1525  0.0000  0.0000  0.0000  0.0000  0.0000  0.0000  0.0000  0.0000 </r>
        <r>  0.0444  0.0026  0.0325  0.0067  0.0000  0.0000  0.0000  0.0000  0.0000 </r>
        <r>  0.0444  0.0183  0.0007  0.0228  0.0000  0.0000  0.0000  0.0000  0.0000 </r>
        <r>  0.0444  0.0082  0.0091  0.0245  0.0000  0.0000  0.0000  0.0000  0.0000 </r>
        <r>  0.0444  0.0306  0.0035  0.0076  0.0000  0.0000  0.0000  0.0000  0.0000 </r>
       </set>
       <set comment="band 38">
        <r>  0.0000  0.0029  0.0095  0.0019  0.0091  0.0015  0.0011  0.0015  0.0002 </r>
        <r>  0.0000  0.0053  0.0176  0.0035  0.0245  0.0052  0.0031  0.0031  0.0013 </r>
        <r>  0.0000  0.0017  0.0058  0.0012  0.0248  0.0063  0.0032  0.0025  0.0024 </r>
        <r>  0.0000  0.0240  0.0801  0.0160  0.0209  0.0039  0.0026  0.0030  0.0006 </r>
        <r>  0.0126  0.0011  0.0035  0.0021  0.0000  0.0000  0.0000  0.0000  0.0000 </r>
        <r>  0.0126  0.0023  0.0010  0.0033  0.0000  0.0000  0.0000  0.0000  0.0000 </r>
        <r>  0.0126  0.0027  0.0005  0.0035  0.0000  0.0000  0.0000  0.0000  0.0000 </r>
        <r>  0.0126  0.0044  0.0000  0.0022  0.0000  0.0000  0.0000  0.0000  0.0000 </r>
       </set>
       <set comment="band 39">
        <r>  0.1261  0.0000  0.0000  0.0000  0.0005  0.0027  0.0017  0.0018  0.0000 </r>
        <r>  0.0001  0.0000  0.0000  0.0000  0.0032  0.0158  0.0099  0.0105  0.0001 </r>
        <r>  0.0522  0.0000  0.0000  0.0000  0.0024  0.0119  0.0074  0.0079  0.0001 </r>
        <r>  0.0604  0.0000  0.0000  0.0000  0.0008  0.0038  0.0024  0.0025  0.0000 </r>
        <r>  0.0111  0.0032  0.0225  0.0015  0.0000  0.0000  0.0000  0.0000  0.0000 </r>
        <r>  0.0111  0.0243  0.0010  0.0018  0.0000  0.0000  0.0000  0.0000  0.0000 </r>
        <r>  0.0111  0.0007  0.0028  0.0236  0.0000  0.0000  0.0000  0.0000  0.0000 </r>
        <r>  0.0111  0.0053  0.0166  0.0052  0.0000  0.0000  0.0000  0.0000  0.0000 </r>
       </set>
       <set comment="band 40">
        <r>  0.0000  0.0144  0.0016  0.0032  0.0005  0.0016  0.0022  0.0003  0.0010 </r>
        <r>  0.0000  0.0011  0.0001  0.0002  0.0032  0.0014  0.0058  0.0090  0.0034 </r>
        <r>  0.0000  0.0087  0.0010  0.0018  0.0007  0.0042  0.0042  0.0014  0.0031 </r>
        <r>  0.0000  0.1569  0.0240  0.0193  0.0048  0.0018  0.0089  0.0126  0.0046 </r>
        <r>  0.0009  0.0058  0.0321  0.0000  0.0000  0.0000  0.0000  0.0000  0.0000 </r>
        <r>  0.0009  0.0075  0.0140  0.0165  0.0000  0.0000  0.0000  0.0000  0.0000 </r>
        <r>  0.0031  0.0052  0.0237  0.0175  0.0000  0.0000  0.0000  0.0000  0.0000 </r>
        <r>  0.0031  0.0126  0.0335  0.0003  0.0000  0.0000  0.0000  0.0000  0.0000 </r>
       </set>
       <set comment="band 41">
        <r>  0.0000  0.0010  0.0048  0.0134  0.0008  0.0003  0.0015  0.0022  0.0008 </r>
        <r>  0.0000  0.0001  0.0004  0.0011  0.0019  0.0062  0.0094  0.0012  0.0041 </r>
        <r>  0.0000  0.0005  0.0028  0.0082  0.0024  0.0004  0.0049  0.0046  0.0013 </r>
        <r>  0.0000  0.0032  0.0427  0.1542  0.0026  0.0091  0.0129  0.0019  0.0061 </r>
        <r>  0.0031  0.0017  0.0405  0.0043  0.0000  0.0000  0.0000  0.0000  0.0000 </r>
        <r>  0.0031  0.0207  0.0185  0.0072  0.0000  0.0000  0.0000  0.0000  0.0000 </r>
        <r>  0.0009  0.0004  0.0304  0.0071  0.0000  0.0000  0.0000  0.0000  0.0000 </r>
        <r>  0.0009  0.0205  0.0151  0.0023  0.0000  0.0000  0.0000  0.0000  0.0000 </r>
       </set>
       <set comment="band 42">
        <r>  0.0000  0.0211  0.0703  0.0141  0.0006  0.0009  0.0001  0.0000  0.0016 </r>
        <r>  0.0000  0.0035  0.0117  0.0023  0.0007  0.0000  0.0001  0.0002  0.0000 </r>
        <r>  0.0000  0.0121  0.0402  0.0080  0.0019  0.0000  0.0002  0.0012  0.0010 </r>
        <r>  0.0000  0.0351  0.1172  0.0234  0.0006  0.0002  0.0001  0.0000  0.0002 </r>
        <r>  0.0001  0.0008  0.0045  0.0000  0.0000  0.0000  0.0000  0.0000  0.0000 </r>
        <r>  0.0001  0.0046  0.0000  0.0007  0.0000  0.0000  0.0000  0.0000  0.0000 </r>
        <r>  0.0001  0.0000  0.0005  0.0048  0.0000  0.0000  0.0000  0.0000  0.0000 </r>
        <r>  0.0001  0.0016  0.0023  0.0014  0.0000  0.0000  0.0000  0.0000  0.0000 </r>
       </set>
       <set comment="band 43">
        <r>  0.0000  0.0055  0.0048  0.0607  0.0014  0.0015  0.0020  0.0058  0.0028 </r>
        <r>  0.0000  0.0002  0.0066  0.0272  0.0008  0.0026  0.0040  0.0005  0.0017 </r>
        <r>  0.0000  0.0108  0.0096  0.0083  0.0019  0.0020  0.0029  0.0079  0.0037 </r>
        <r>  0.0000  0.0101  0.0229  0.0464  0.0004  0.0027  0.0026  0.0009  0.0020 </r>
        <r>  0.0058  0.0066  0.0030  0.0090  0.0000  0.0000  0.0000  0.0000  0.0000 </r>
        <r>  0.0057  0.0005  0.0179  0.0001  0.0000  0.0000  0.0000  0.0000  0.0000 </r>
        <r>  0.0001  0.0012  0.0042  0.0002  0.0000  0.0000  0.0000  0.0000  0.0000 </r>
        <r>  0.0001  0.0009  0.0030  0.0017  0.0000  0.0000  0.0000  0.0000  0.0000 </r>
       </set>
       <set comment="band 44">
        <r>  0.0000  0.0514  0.0189  0.0009  0.0017  0.0030  0.0070  0.0002  0.0017 </r>
        <r>  0.0000  0.0270  0.0048  0.0022  0.0013  0.0006  0.0024  0.0038  0.0014 </r>
        <r>  0.0000  0.0122  0.0000  0.0165  0.0023  0.0042  0.0095  0.0003  0.0023 </r>
        <r>  0.0000  0.0534  0.0035  0.0225  0.0015  0.0002  0.0032  0.0030  0.0008 </r>
        <r>  0.0001  0.0021  0.0028  0.0007  0.0000  0.0000  0.0000  0.0000  0.0000 </r>
        <r>  0.0001  0.0004  0.0045  0.0007  0.0000  0.0000  0.0000  0.0000  0.0000 </r>
        <r>  0.0058  0.0119  0.0066  0.0000  0.0000  0.0000  0.0000  0.0000  0.0000 </r>
        <r>  0.0057  0.0000  0.0114  0.0071  0.0000  0.0000  0.0000  0.0000  0.0000 </r>
       </set>
       <set comment="band 45">
        <r>  0.0107  0.0000  0.0000  0.0000  0.0001  0.0007  0.0004  0.0004  0.0000 </r>
        <r>  0.1938  0.0000  0.0000  0.0000  0.0000  0.0002  0.0001  0.0001  0.0000 </r>
        <r>  0.0008  0.0000  0.0000  0.0000  0.0004  0.0018  0.0011  0.0012  0.0000 </r>
        <r>  0.0532  0.0000  0.0000  0.0000  0.0029  0.0144  0.0090  0.0096  0.0001 </r>
        <r>  0.0051  0.0097  0.0170  0.0128  0.0000  0.0000  0.0000  0.0000  0.0000 </r>
        <r>  0.0051  0.0138  0.0092  0.0165  0.0000  0.0000  0.0000  0.0000  0.0000 </r>
        <r>  0.0051  0.0170  0.0010  0.0215  0.0000  0.0000  0.0000  0.0000  0.0000 </r>
        <r>  0.0051  0.0223  0.0000  0.0172  0.0000  0.0000  0.0000  0.0000  0.0000 </r>
       </set>
       <set comment="band 46">
        <r>  0.1373  0.0000  0.0000  0.0000  0.0010  0.0048  0.0030  0.0032  0.0000 </r>
        <r>  0.0021  0.0000  0.0000  0.0000  0.0001  0.0003  0.0002  0.0002  0.0000 </r>
        <r>  0.1653  0.0000  0.0000  0.0000  0.0005  0.0024  0.0015  0.0016  0.0000 </r>
        <r>  0.0004  0.0000  0.0000  0.0000  0.0001  0.0007  0.0005  0.0005  0.0000 </r>
        <r>  0.0005  0.0169  0.0008  0.0331  0.0000  0.0000  0.0000  0.0000  0.0000 </r>
        <r>  0.0005  0.0250  0.0005  0.0253  0.0000  0.0000  0.0000  0.0000  0.0000 </r>
        <r>  0.0005  0.0232  0.0107  0.0170  0.0000  0.0000  0.0000  0.0000  0.0000 </r>
        <r>  0.0005  0.0154  0.0239  0.0115  0.0000  0.0000  0.0000  0.0000  0.0000 </r>
       </set>
       <set comment="band 47">
        <r>  0.0000  0.0097  0.0206  0.0031  0.0040  0.0036  0.0006  0.0000  0.0075 </r>
        <r>  0.0000  0.0027  0.0022  0.0014  0.0020  0.0006  0.0002  0.0036  0.0066 </r>
        <r>  0.0000  0.0036  0.0144  0.0014  0.0083  0.0020  0.0009  0.0008  0.0016 </r>
        <r>  0.0000  0.0026  0.0043  0.0009  0.0043  0.0054  0.0003  0.0146  0.0351 </r>
        <r>  0.0002  0.0047  0.0004  0.0144  0.0000  0.0000  0.0000  0.0000  0.0000 </r>
        <r>  0.0012  0.0042  0.0002  0.0137  0.0000  0.0000  0.0000  0.0000  0.0000 </r>
        <r>  0.0002  0.0104  0.0060  0.0019  0.0000  0.0000  0.0000  0.0000  0.0000 </r>
        <r>  0.0005  0.0108  0.0059  0.0027  0.0000  0.0000  0.0000  0.0000  0.0000 </r>
       </set>
       <set comment="band 48">
        <r>  0.0000  0.0159  0.0154  0.0168  0.0032  0.0003  0.0023  0.0012  0.0027 </r>
        <r>  0.0000  0.0042  0.0059  0.0594  0.0012  0.0022  0.0002  0.0008  0.0005 </r>
        <r>  0.0000  0.0293  0.0101  0.0115  0.0029  0.0004  0.0017  0.0014  0.0041 </r>
        <r>  0.0000  0.0011  0.0027  0.0173  0.0012  0.0048  0.0009  0.0020  0.0010 </r>
        <r>  0.0054  0.0061  0.0008  0.0000  0.0000  0.0000  0.0000  0.0000  0.0000 </r>
        <r>  0.0063  0.0007  0.0005  0.0000  0.0000  0.0000  0.0000  0.0000  0.0000 </r>
        <r>  0.0187  0.0003  0.0013  0.0024  0.0000  0.0000  0.0000  0.0000  0.0000 </r>
        <r>  0.0160  0.0006  0.0002  0.0020  0.0000  0.0000  0.0000  0.0000  0.0000 </r>
       </set>
      </set>
     </set>
    </set>
   </array>
  </projected>
 </calculation>
 <structure name="finalpos" >
  <crystal>
   <varray name="basis" >
    <v>       4.93901185       0.00000000      -4.41848219 </v>
    <v>      -0.98753537       4.83927803      -4.41848219 </v>
    <v>       0.00000000       0.00000000       6.62697690 </v>
   </varray>
   <i name="volume">    158.39304179 </i>
   <varray name="rec_basis" >
    <v>       0.20246965       0.04131731       0.00000000 </v>
    <v>       0.00000000       0.20664239       0.00000000 </v>
    <v>       0.13499497       0.16532509       0.15089837 </v>
   </varray>
  </crystal>
  <varray name="positions" >
   <v>       0.75000000       0.25000000       0.50000000 </v>
   <v>       0.00000000       0.00000000       0.00000000 </v>
   <v>       0.25000000       0.75000000       0.50000000 </v>
   <v>       0.50000000       0.50000000       0.00000000 </v>
   <v>       0.36432714       0.37124032       0.47758056 </v>
   <v>       0.89365977       0.88674759       0.52241944 </v>
   <v>       0.11325241       0.63567286       0.00691218 </v>
   <v>       0.62875968       0.10634023       0.99308782 </v>
  </varray>
 </structure>
</modeling>
