    2    2    1    2
  0.2016476E+02  0.3849278E-09  0.3849279E-09  0.3849278E-09  0.5000000E-15
  1.000000000000000E-004
  CAR 
 unknown system                          
      8     20     12
 
  0.0000000E+00  0.0000000E+00  0.0000000E+00  0.2915452E-02
      1         -6.220737       -6.220706   1.000000   1.000000
      2          5.721348        5.721003   1.000000   1.000000
      3          5.721348        5.721003   1.000000   1.000000
      4          5.721351        5.721006   1.000000   1.000000
      5          8.233688        8.234296   0.000000   0.000000
      6          8.233695        8.234303   0.000000   0.000000
      7          8.233696        8.234304   0.000000   0.000000
      8          8.963879        8.963386   0.000000   0.000000
      9         13.400508       13.398731   0.000000   0.000000
     10         13.403486       13.404235   0.000000   0.000000
     11         13.403487       13.404236   0.000000   0.000000
     12         16.790759       16.791689   0.000000   0.000000
 
  0.1428571E+00 -0.7367438E-18  0.0000000E+00  0.2332362E-01
      1         -5.955180       -5.955155   1.000000   1.000000
      2          3.776646        3.776523   1.000000   1.000000
      3          5.362157        5.361936   1.000000   1.000000
      4          5.362159        5.361938   1.000000   1.000000
      5          8.080129        8.080212   0.000000   0.000000
      6          8.756018        8.756512   0.000000   0.000000
      7          8.756025        8.756520   0.000000   0.000000
      8         10.640618       10.640128   0.000000   0.000000
      9         12.821385       12.822199   0.000000   0.000000
     10         12.821388       12.822201   0.000000   0.000000
     11         14.379175       14.377730   0.000000   0.000000
     12         16.146301       16.146183   0.000000   0.000000
 
  0.2857143E+00 -0.3186199E-17  0.0000000E+00  0.2332362E-01
      1         -5.189410       -5.189402   1.000000   1.000000
      2          1.155622        1.155608   1.000000   1.000000
      3          4.847052        4.846922   1.000000   1.000000
      4          4.847055        4.846924   1.000000   1.000000
      5          7.530626        7.530501   0.000000   0.000000
      6          9.199048        9.199624   0.000000   0.000000
      7          9.199056        9.199632   0.000000   0.000000
      8         13.039000       13.038204   0.000000   0.000000
      9         13.106708       13.107377   0.000000   0.000000
     10         13.106712       13.107380   0.000000   0.000000
     11         14.395230       14.394350   0.000000   0.000000
     12         18.114073       18.112947   0.000000   0.000000
 
  0.4285714E+00 -0.3322160E-16  0.0000000E+00  0.2332362E-01
      1         -4.146282       -4.146317   1.000000   1.000000
      2         -0.877914       -0.877853   1.000000   1.000000
      3          4.559979        4.559871   1.000000   1.000000
      4          4.559982        4.559874   1.000000   1.000000
      5          7.202658        7.202474   0.000000   0.000000
      6          9.036647        9.037366   0.000000   0.000000
      7          9.036656        9.037374   0.000000   0.000000
      8         13.288079       13.287060   0.000000   0.000000
      9         15.128196       15.128628   0.000000   0.000000
     10         15.128199       15.128632   0.000000   0.000000
     11         16.108073       16.106890   0.000000   0.000000
     12         18.190279       18.190662   0.000000   0.000000
 
  0.1428571E+00  0.1428571E+00  0.0000000E+00  0.1749271E-01
      1         -5.865387       -5.865363   1.000000   1.000000
      2          4.081182        4.080855   1.000000   1.000000
      3          4.742101        4.742063   1.000000   1.000000
      4          4.742101        4.742064   1.000000   1.000000
      5          7.527264        7.527584   0.000000   0.000000
      6          9.643453        9.643728   0.000000   0.000000
      7          9.643456        9.643731   0.000000   0.000000
      8         10.047101       10.046890   0.000000   0.000000
      9         12.095925       12.096405   0.000000   0.000000
     10         13.796893       13.797635   0.000000   0.000000
     11         14.799390       14.797854   0.000000   0.000000
     12         17.410545       17.411516   0.000000   0.000000
 
  0.2857143E+00  0.1428571E+00  0.0000000E+00  0.6997085E-01
      1         -5.259241       -5.259230   1.000000   1.000000
      2          1.955222        1.955111   1.000000   1.000000
      3          4.153464        4.153396   1.000000   1.000000
      4          4.199859        4.199896   1.000000   1.000000
      5          7.717735        7.717866   0.000000   0.000000
      6          9.559600        9.559803   0.000000   0.000000
      7         10.183032       10.183206   0.000000   0.000000
      8         10.420473       10.420765   0.000000   0.000000
      9         13.789632       13.789506   0.000000   0.000000
     10         14.166850       14.167529   0.000000   0.000000
     11         15.723633       15.722801   0.000000   0.000000
     12         17.599937       17.598947   0.000000   0.000000
 
  0.4285714E+00  0.1428571E+00  0.0000000E+00  0.6997085E-01
      1         -4.249519       -4.249541   1.000000   1.000000
      2         -0.232381       -0.232381   1.000000   1.000000
      3          3.461707        3.461677   1.000000   1.000000
      4          4.013067        4.013102   1.000000   1.000000
      5          7.773816        7.773948   0.000000   0.000000
      6          9.470763        9.470874   0.000000   0.000000
      7         10.191536       10.192057   0.000000   0.000000
      8         11.408328       11.408363   0.000000   0.000000
      9         14.998895       14.998280   0.000000   0.000000
     10         15.893470       15.893878   0.000000   0.000000
     11         16.528410       16.527806   0.000000   0.000000
     12         17.875064       17.875401   0.000000   0.000000
 
 -0.4285714E+00  0.1428571E+00  0.0000000E+00  0.6997085E-01
      1         -3.687203       -3.687261   1.000000   1.000000
      2         -1.100838       -1.100787   1.000000   1.000000
      3          3.045646        3.045663   1.000000   1.000000
      4          4.213467        4.213446   1.000000   1.000000
      5          7.875631        7.875798   0.000000   0.000000
      6          9.370183        9.370165   0.000000   0.000000
      7          9.791276        9.791914   0.000000   0.000000
      8         13.759166       13.758824   0.000000   0.000000
      9         14.291138       14.290557   0.000000   0.000000
     10         14.692986       14.693411   0.000000   0.000000
     11         16.541142       16.541126   0.000000   0.000000
     12         18.791616       18.791916   0.000000   0.000000
 
 -0.2857143E+00  0.1428571E+00  0.0000000E+00  0.6997085E-01
      1         -4.618629       -4.618637   1.000000   1.000000
      2          0.449084        0.449053   1.000000   1.000000
      3          3.046880        3.046941   1.000000   1.000000
      4          4.730017        4.729891   1.000000   1.000000
      5          8.289372        8.289566   0.000000   0.000000
      6          9.559489        9.560122   0.000000   0.000000
      7          9.569875        9.569761   0.000000   0.000000
      8         12.261851       12.261507   0.000000   0.000000
      9         12.397708       12.398344   0.000000   0.000000
     10         15.378563       15.377898   0.000000   0.000000
     11         16.818180       16.818164   0.000000   0.000000
     12         17.810106       17.809840   0.000000   0.000000
 
 -0.1428571E+00  0.1428571E+00  0.0000000E+00  0.3498542E-01
      1         -5.519532       -5.519516   1.000000   1.000000
      2          2.575975        2.575831   1.000000   1.000000
      3          3.735406        3.735487   1.000000   1.000000
      4          5.325387        5.325124   1.000000   1.000000
      5          8.710899        8.711237   0.000000   0.000000
      6          8.962099        8.962688   0.000000   0.000000
      7          9.202432        9.202145   0.000000   0.000000
      8         11.249959       11.249793   0.000000   0.000000
      9         11.853497       11.854327   0.000000   0.000000
     10         14.169740       14.170024   0.000000   0.000000
     11         15.588495       15.587361   0.000000   0.000000
     12         16.833356       16.832825   0.000000   0.000000
 
  0.2857143E+00  0.2857143E+00  0.0000000E+00  0.1749271E-01
      1         -4.816136       -4.816134   1.000000   1.000000
      2          1.561096        1.560862   1.000000   1.000000
      3          3.576236        3.576362   1.000000   1.000000
      4          3.576238        3.576364   1.000000   1.000000
      5          6.556497        6.556604   0.000000   0.000000
      6          8.220517        8.220756   0.000000   0.000000
      7         12.052785       12.052857   0.000000   0.000000
      8         12.052785       12.052857   0.000000   0.000000
      9         14.417101       14.416890   0.000000   0.000000
     10         14.974176       14.974896   0.000000   0.000000
     11         17.654651       17.653126   0.000000   0.000000
     12         18.964544       18.965200   0.000000   0.000000
 
  0.4285714E+00  0.2857143E+00  0.0000000E+00  0.6997085E-01
      1         -3.913929       -3.913952   1.000000   1.000000
      2          0.060360        0.060215   1.000000   1.000000
      3          2.581988        2.582151   1.000000   1.000000
      4          3.317177        3.317321   1.000000   1.000000
      5          6.835112        6.835224   0.000000   0.000000
      6          8.320370        8.320478   0.000000   0.000000
      7         12.263336       12.263262   0.000000   0.000000
      8         12.435380       12.435658   0.000000   0.000000
      9         16.554757       16.555209   0.000000   0.000000
     10         16.879582       16.879455   0.000000   0.000000
     11         17.232379       17.231567   0.000000   0.000000
     12         17.857444       17.857658   0.000000   0.000000
 
 -0.4285714E+00  0.2857143E+00  0.0000000E+00  0.6997085E-01
      1         -2.992105       -2.992179   1.000000   1.000000
      2         -1.122420       -1.122479   1.000000   1.000000
      3          1.619787        1.619976   1.000000   1.000000
      4          3.487362        3.487473   1.000000   1.000000
      5          7.071087        7.071251   0.000000   0.000000
      6         10.567254       10.567070   0.000000   0.000000
      7         11.930722       11.931189   0.000000   0.000000
      8         11.994754       11.994664   0.000000   0.000000
      9         14.666845       14.666462   0.000000   0.000000
     10         14.705086       14.705454   0.000000   0.000000
     11         18.909753       18.909168   0.000000   0.000000
     12         19.402277       19.405378   0.000000   0.000000
 
 -0.2857143E+00  0.2857143E+00  0.0000000E+00  0.3498542E-01
      1         -3.644149       -3.644191   1.000000   1.000000
      2         -0.369971       -0.370066   1.000000   1.000000
      3          1.543002        1.543206   1.000000   1.000000
      4          4.039053        4.039073   1.000000   1.000000
      5          7.686919        7.687163   0.000000   0.000000
      6         11.115567       11.116089   0.000000   0.000000
      7         11.419079       11.418358   0.000000   0.000000
      8         12.230647       12.230509   0.000000   0.000000
      9         12.527419       12.527972   0.000000   0.000000
     10         13.776676       13.776745   0.000000   0.000000
     11         18.867267       18.866317   0.000000   0.000000
     12         19.452003       19.452128   0.000000   0.000000
 
  0.4285714E+00  0.4285714E+00  0.0000000E+00  0.1749271E-01
      1         -3.131171       -3.131213   1.000000   1.000000
      2         -0.934241       -0.934363   1.000000   1.000000
      3          2.945103        2.945287   1.000000   1.000000
      4          2.945105        2.945290   1.000000   1.000000
      5          6.188159        6.188223   0.000000   0.000000
      6          6.697740        6.697867   0.000000   0.000000
      7         14.686988       14.687007   0.000000   0.000000
      8         14.686990       14.687009   0.000000   0.000000
      9         16.925324       16.926005   0.000000   0.000000
     10         17.365311       17.364748   0.000000   0.000000
     11         17.689964       17.689843   0.000000   0.000000
     12         17.689964       17.689845   0.000000   0.000000
 
 -0.4285714E+00  0.4285714E+00  0.0000000E+00  0.3498542E-01
      1         -2.178768       -2.178858   1.000000   1.000000
      2         -1.893313       -1.893392   1.000000   1.000000
      3          2.031006        2.031229   1.000000   1.000000
      4          3.007071        3.007245   1.000000   1.000000
      5          6.487090        6.487191   0.000000   0.000000
      6          7.761713        7.761750   0.000000   0.000000
      7         14.462632       14.462970   0.000000   0.000000
      8         14.890361       14.890352   0.000000   0.000000
      9         15.083081       15.082621   0.000000   0.000000
     10         15.378084       15.378249   0.000000   0.000000
     11         19.379522       19.379033   0.000000   0.000000
     12         19.398120       19.398360   0.000000   0.000000
 
  0.4285714E+00  0.2857143E+00  0.1428571E+00  0.6997085E-01
      1         -4.507044       -4.507052   1.000000   1.000000
      2          0.823461        0.823317   1.000000   1.000000
      3          2.582317        2.582475   1.000000   1.000000
      4          3.923532        3.923570   1.000000   1.000000
      5          8.225083        8.225158   0.000000   0.000000
      6          9.453924        9.454134   0.000000   0.000000
      7          9.787712        9.787904   0.000000   0.000000
      8         11.798810       11.798793   0.000000   0.000000
      9         13.889138       13.889510   0.000000   0.000000
     10         16.543267       16.542718   0.000000   0.000000
     11         17.038723       17.038708   0.000000   0.000000
     12         18.085585       18.084878   0.000000   0.000000
 
 -0.4285714E+00  0.2857143E+00  0.1428571E+00  0.1399417E+00
      1         -3.462767       -3.462819   1.000000   1.000000
      2         -0.712011       -0.712062   1.000000   1.000000
      3          2.009574        2.009705   1.000000   1.000000
      4          3.380890        3.381007   1.000000   1.000000
      5          8.700692        8.700789   0.000000   0.000000
      6          9.120551        9.120673   0.000000   0.000000
      7         11.100256       11.100351   0.000000   0.000000
      8         12.244321       12.244394   0.000000   0.000000
      9         13.956187       13.956132   0.000000   0.000000
     10         15.617323       15.617420   0.000000   0.000000
     11         17.749064       17.748776   0.000000   0.000000
     12         19.010173       19.009868   0.000000   0.000000
 
 -0.4285714E+00  0.4285714E+00  0.1428571E+00  0.6997085E-01
      1         -2.924416       -2.924474   1.000000   1.000000
      2         -1.018166       -1.018291   1.000000   1.000000
      3          2.097911        2.098114   1.000000   1.000000
      4          2.512228        2.512433   1.000000   1.000000
      5          7.841783        7.841816   0.000000   0.000000
      6          8.200035        8.200102   0.000000   0.000000
      7         11.793497       11.793640   0.000000   0.000000
      8         14.301189       14.301326   0.000000   0.000000
      9         14.782616       14.782387   0.000000   0.000000
     10         16.693860       16.693961   0.000000   0.000000
     11         18.093358       18.093463   0.000000   0.000000
     12         19.632099       19.629709   0.000000   0.000000
 
 -0.2857143E+00  0.4285714E+00  0.1428571E+00  0.6997085E-01
      1         -2.484117       -2.484208   1.000000   1.000000
      2         -1.416063       -1.416164   1.000000   1.000000
      3          1.449148        1.449387   1.000000   1.000000
      4          2.604297        2.604482   1.000000   1.000000
      5          8.365554        8.365608   0.000000   0.000000
      6         10.463972       10.463637   0.000000   0.000000
      7         11.291465       11.291875   0.000000   0.000000
      8         11.419472       11.419631   0.000000   0.000000
      9         14.715135       14.714995   0.000000   0.000000
     10         15.880142       15.880275   0.000000   0.000000
     11         18.811918       18.811851   0.000000   0.000000
     12         20.085745       20.085977   0.000000   0.000000
