PROCAR lm decomposed
# of k-points:   20         # of bands:   12         # of ions:    2

 k-point     1 :    0.00000000 0.00000000 0.00000000     weight = 0.00291545

band     1 # energy   -6.22073680 # occ.  1.00000000
 
ion      s     py     pz     px    dxy    dyz    dz2    dxz  x2-y2    tot
    1  0.212  0.000  0.000  0.000  0.000  0.000  0.000  0.000  0.000  0.212
    2  0.212  0.000  0.000  0.000  0.000  0.000  0.000  0.000  0.000  0.212
tot    0.425  0.000  0.000  0.000  0.000  0.000  0.000  0.000  0.000  0.425
 
band     2 # energy    5.72134801 # occ.  1.00000000
 
ion      s     py     pz     px    dxy    dyz    dz2    dxz  x2-y2    tot
    1  0.000  0.000  0.212  0.003  0.000  0.000  0.000  0.000  0.000  0.216
    2  0.000  0.000  0.212  0.003  0.000  0.000  0.000  0.000  0.000  0.216
tot    0.000  0.000  0.424  0.007  0.000  0.000  0.000  0.000  0.000  0.431
 
band     3 # energy    5.72134816 # occ.  1.00000000
 
ion      s     py     pz     px    dxy    dyz    dz2    dxz  x2-y2    tot
    1  0.000  0.006  0.003  0.206  0.000  0.000  0.000  0.000  0.000  0.216
    2  0.000  0.006  0.003  0.206  0.000  0.000  0.000  0.000  0.000  0.216
tot    0.000  0.011  0.007  0.413  0.000  0.000  0.000  0.000  0.000  0.431
 
band     4 # energy    5.72135092 # occ.  1.00000000
 
ion      s     py     pz     px    dxy    dyz    dz2    dxz  x2-y2    tot
    1  0.000  0.210  0.000  0.006  0.000  0.000  0.000  0.000  0.000  0.216
    2  0.000  0.210  0.000  0.006  0.000  0.000  0.000  0.000  0.000  0.216
tot    0.000  0.420  0.000  0.011  0.000  0.000  0.000  0.000  0.000  0.431
 
band     5 # energy    8.23368809 # occ.  0.00000000
 
ion      s     py     pz     px    dxy    dyz    dz2    dxz  x2-y2    tot
    1  0.000  0.150  0.000  0.001  0.000  0.000  0.000  0.000  0.000  0.151
    2  0.000  0.150  0.000  0.001  0.000  0.000  0.000  0.000  0.000  0.151
tot    0.000  0.299  0.000  0.003  0.000  0.000  0.000  0.000  0.000  0.302
 
band     6 # energy    8.23369519 # occ.  0.00000000
 
ion      s     py     pz     px    dxy    dyz    dz2    dxz  x2-y2    tot
    1  0.000  0.001  0.000  0.150  0.000  0.000  0.000  0.000  0.000  0.151
    2  0.000  0.001  0.000  0.150  0.000  0.000  0.000  0.000  0.000  0.151
tot    0.000  0.003  0.000  0.299  0.000  0.000  0.000  0.000  0.000  0.302
 
band     7 # energy    8.23369649 # occ.  0.00000000
 
ion      s     py     pz     px    dxy    dyz    dz2    dxz  x2-y2    tot
    1  0.000  0.000  0.151  0.000  0.000  0.000  0.000  0.000  0.000  0.151
    2  0.000  0.000  0.151  0.000  0.000  0.000  0.000  0.000  0.000  0.151
tot    0.000  0.000  0.302  0.000  0.000  0.000  0.000  0.000  0.000  0.302
 
band     8 # energy    8.96387910 # occ.  0.00000000
 
ion      s     py     pz     px    dxy    dyz    dz2    dxz  x2-y2    tot
    1  0.359  0.000  0.000  0.000  0.000  0.000  0.000  0.000  0.000  0.359
    2  0.359  0.000  0.000  0.000  0.000  0.000  0.000  0.000  0.000  0.359
tot    0.717  0.000  0.000  0.000  0.000  0.000  0.000  0.000  0.000  0.717
 
band     9 # energy   13.40050805 # occ.  0.00000000
 
ion      s     py     pz     px    dxy    dyz    dz2    dxz  x2-y2    tot
    1  0.102  0.000  0.000  0.000  0.000  0.000  0.000  0.000  0.000  0.102
    2  0.102  0.000  0.000  0.000  0.000  0.000  0.000  0.000  0.000  0.102
tot    0.205  0.000  0.000  0.000  0.000  0.000  0.000  0.000  0.000  0.205
 
band    10 # energy   13.40348591 # occ.  0.00000000
 
ion      s     py     pz     px    dxy    dyz    dz2    dxz  x2-y2    tot
    1  0.000  0.000  0.000  0.000  0.000  0.000  0.000  0.000  0.000  0.000
    2  0.000  0.000  0.000  0.000  0.000  0.000  0.000  0.000  0.000  0.000
tot    0.000  0.000  0.000  0.000  0.000  0.000  0.000  0.000  0.000  0.000
 
band    11 # energy   13.40348725 # occ.  0.00000000
 
ion      s     py     pz     px    dxy    dyz    dz2    dxz  x2-y2    tot
    1  0.000  0.000  0.000  0.000  0.000  0.000  0.000  0.000  0.000  0.000
    2  0.000  0.000  0.000  0.000  0.000  0.000  0.000  0.000  0.000  0.000
tot    0.000  0.000  0.000  0.000  0.000  0.000  0.000  0.000  0.000  0.000
 
band    12 # energy   16.79075873 # occ.  0.00000000
 
ion      s     py     pz     px    dxy    dyz    dz2    dxz  x2-y2    tot
    1  0.000  0.023  0.010  0.007  0.000  0.000  0.000  0.000  0.000  0.040
    2  0.000  0.023  0.010  0.007  0.000  0.000  0.000  0.000  0.000  0.040
tot    0.000  0.046  0.020  0.014  0.000  0.000  0.000  0.000  0.000  0.080
 

 k-point     2 :    0.14285714-0.00000000 0.00000000     weight = 0.02332362

band     1 # energy   -5.95518029 # occ.  1.00000000
 
ion      s     py     pz     px    dxy    dyz    dz2    dxz  x2-y2    tot
    1  0.211  0.000  0.000  0.003  0.000  0.000  0.000  0.000  0.000  0.214
    2  0.211  0.000  0.000  0.003  0.000  0.000  0.000  0.000  0.000  0.214
tot    0.422  0.001  0.000  0.005  0.000  0.000  0.000  0.000  0.000  0.428
 
band     2 # energy    3.77664598 # occ.  1.00000000
 
ion      s     py     pz     px    dxy    dyz    dz2    dxz  x2-y2    tot
    1  0.069  0.017  0.000  0.133  0.000  0.000  0.000  0.000  0.000  0.219
    2  0.069  0.017  0.000  0.133  0.000  0.000  0.000  0.000  0.000  0.219
tot    0.138  0.033  0.000  0.267  0.000  0.000  0.000  0.000  0.000  0.438
 
band     3 # energy    5.36215676 # occ.  1.00000000
 
ion      s     py     pz     px    dxy    dyz    dz2    dxz  x2-y2    tot
    1  0.000  0.000  0.212  0.000  0.000  0.000  0.000  0.000  0.000  0.212
    2  0.000  0.000  0.212  0.000  0.000  0.000  0.000  0.000  0.000  0.212
tot    0.000  0.000  0.425  0.000  0.000  0.000  0.000  0.000  0.000  0.425
 
band     4 # energy    5.36215884 # occ.  1.00000000
 
ion      s     py     pz     px    dxy    dyz    dz2    dxz  x2-y2    tot
    1  0.000  0.189  0.000  0.024  0.000  0.000  0.000  0.000  0.000  0.212
    2  0.000  0.189  0.000  0.024  0.000  0.000  0.000  0.000  0.000  0.212
tot    0.000  0.378  0.000  0.047  0.000  0.000  0.000  0.000  0.000  0.425
 
band     5 # energy    8.08012877 # occ.  0.00000000
 
ion      s     py     pz     px    dxy    dyz    dz2    dxz  x2-y2    tot
    1  0.116  0.009  0.000  0.072  0.000  0.000  0.000  0.000  0.000  0.198
    2  0.116  0.009  0.000  0.072  0.000  0.000  0.000  0.000  0.000  0.198
tot    0.233  0.018  0.000  0.145  0.000  0.000  0.000  0.000  0.000  0.396
 
band     6 # energy    8.75601803 # occ.  0.00000000
 
ion      s     py     pz     px    dxy    dyz    dz2    dxz  x2-y2    tot
    1  0.000  0.138  0.000  0.017  0.000  0.000  0.000  0.000  0.000  0.155
    2  0.000  0.138  0.000  0.017  0.000  0.000  0.000  0.000  0.000  0.155
tot    0.000  0.275  0.000  0.034  0.000  0.000  0.000  0.000  0.000  0.310
 
band     7 # energy    8.75602539 # occ.  0.00000000
 
ion      s     py     pz     px    dxy    dyz    dz2    dxz  x2-y2    tot
    1  0.000  0.000  0.155  0.000  0.000  0.000  0.000  0.000  0.000  0.155
    2  0.000  0.000  0.155  0.000  0.000  0.000  0.000  0.000  0.000  0.155
tot    0.000  0.000  0.310  0.000  0.000  0.000  0.000  0.000  0.000  0.310
 
band     8 # energy   10.64061849 # occ.  0.00000000
 
ion      s     py     pz     px    dxy    dyz    dz2    dxz  x2-y2    tot
    1  0.187  0.012  0.000  0.095  0.000  0.000  0.000  0.000  0.000  0.294
    2  0.187  0.012  0.000  0.095  0.000  0.000  0.000  0.000  0.000  0.294
tot    0.375  0.024  0.000  0.189  0.000  0.000  0.000  0.000  0.000  0.588
 
band     9 # energy   12.82138540 # occ.  0.00000000
 
ion      s     py     pz     px    dxy    dyz    dz2    dxz  x2-y2    tot
    1  0.000  0.002  0.000  0.000  0.000  0.000  0.000  0.000  0.000  0.002
    2  0.000  0.002  0.000  0.000  0.000  0.000  0.000  0.000  0.000  0.002
tot    0.000  0.004  0.000  0.001  0.000  0.000  0.000  0.000  0.000  0.005
 
band    10 # energy   12.82138781 # occ.  0.00000000
 
ion      s     py     pz     px    dxy    dyz    dz2    dxz  x2-y2    tot
    1  0.000  0.000  0.002  0.000  0.000  0.000  0.000  0.000  0.000  0.002
    2  0.000  0.000  0.002  0.000  0.000  0.000  0.000  0.000  0.000  0.002
tot    0.000  0.000  0.005  0.000  0.000  0.000  0.000  0.000  0.000  0.005
 
band    11 # energy   14.37917525 # occ.  0.00000000
 
ion      s     py     pz     px    dxy    dyz    dz2    dxz  x2-y2    tot
    1  0.071  0.004  0.000  0.036  0.000  0.000  0.000  0.000  0.000  0.111
    2  0.071  0.004  0.000  0.036  0.000  0.000  0.000  0.000  0.000  0.111
tot    0.142  0.009  0.000  0.071  0.000  0.000  0.000  0.000  0.000  0.222
 
band    12 # energy   16.14630094 # occ.  0.00000000
 
ion      s     py     pz     px    dxy    dyz    dz2    dxz  x2-y2    tot
    1  0.022  0.002  0.000  0.018  0.000  0.000  0.000  0.000  0.000  0.042
    2  0.022  0.002  0.000  0.018  0.000  0.000  0.000  0.000  0.000  0.042
tot    0.044  0.004  0.000  0.035  0.000  0.000  0.000  0.000  0.000  0.084
 

 k-point     3 :    0.28571429-0.00000000 0.00000000     weight = 0.02332362

band     1 # energy   -5.18940961 # occ.  1.00000000
 
ion      s     py     pz     px    dxy    dyz    dz2    dxz  x2-y2    tot
    1  0.209  0.001  0.000  0.009  0.000  0.000  0.000  0.000  0.000  0.219
    2  0.209  0.001  0.000  0.009  0.000  0.000  0.000  0.000  0.000  0.219
tot    0.419  0.002  0.000  0.018  0.000  0.000  0.000  0.000  0.000  0.439
 
band     2 # energy    1.15562183 # occ.  1.00000000
 
ion      s     py     pz     px    dxy    dyz    dz2    dxz  x2-y2    tot
    1  0.101  0.012  0.000  0.099  0.000  0.000  0.000  0.000  0.000  0.212
    2  0.101  0.012  0.000  0.099  0.000  0.000  0.000  0.000  0.000  0.212
tot    0.201  0.025  0.000  0.197  0.000  0.000  0.000  0.000  0.000  0.423
 
band     3 # energy    4.84705238 # occ.  1.00000000
 
ion      s     py     pz     px    dxy    dyz    dz2    dxz  x2-y2    tot
    1  0.000  0.000  0.214  0.000  0.000  0.000  0.000  0.000  0.000  0.214
    2  0.000  0.000  0.214  0.000  0.000  0.000  0.000  0.000  0.000  0.214
tot    0.000  0.000  0.428  0.000  0.000  0.000  0.000  0.000  0.000  0.428
 
band     4 # energy    4.84705482 # occ.  1.00000000
 
ion      s     py     pz     px    dxy    dyz    dz2    dxz  x2-y2    tot
    1  0.000  0.190  0.000  0.024  0.000  0.000  0.000  0.000  0.000  0.214
    2  0.000  0.190  0.000  0.024  0.000  0.000  0.000  0.000  0.000  0.214
tot    0.000  0.380  0.000  0.048  0.000  0.000  0.000  0.000  0.000  0.428
 
band     5 # energy    7.53062629 # occ.  0.00000000
 
ion      s     py     pz     px    dxy    dyz    dz2    dxz  x2-y2    tot
    1  0.165  0.004  0.000  0.035  0.000  0.000  0.000  0.000  0.000  0.204
    2  0.165  0.004  0.000  0.035  0.000  0.000  0.000  0.000  0.000  0.204
tot    0.330  0.009  0.000  0.070  0.000  0.000  0.000  0.000  0.000  0.409
 
band     6 # energy    9.19904790 # occ.  0.00000000
 
ion      s     py     pz     px    dxy    dyz    dz2    dxz  x2-y2    tot
    1  0.000  0.114  0.000  0.014  0.000  0.000  0.000  0.000  0.000  0.128
    2  0.000  0.114  0.000  0.014  0.000  0.000  0.000  0.000  0.000  0.128
tot    0.000  0.227  0.000  0.028  0.000  0.000  0.000  0.000  0.000  0.256
 
band     7 # energy    9.19905626 # occ.  0.00000000
 
ion      s     py     pz     px    dxy    dyz    dz2    dxz  x2-y2    tot
    1  0.000  0.000  0.128  0.000  0.000  0.000  0.000  0.000  0.000  0.128
    2  0.000  0.000  0.128  0.000  0.000  0.000  0.000  0.000  0.000  0.128
tot    0.000  0.000  0.256  0.000  0.000  0.000  0.000  0.000  0.000  0.256
 
band     8 # energy   13.03899984 # occ.  0.00000000
 
ion      s     py     pz     px    dxy    dyz    dz2    dxz  x2-y2    tot
    1  0.071  0.018  0.000  0.141  0.000  0.000  0.000  0.000  0.000  0.229
    2  0.071  0.018  0.000  0.141  0.000  0.000  0.000  0.000  0.000  0.229
tot    0.142  0.035  0.000  0.281  0.000  0.000  0.000  0.000  0.000  0.458
 
band     9 # energy   13.10670842 # occ.  0.00000000
 
ion      s     py     pz     px    dxy    dyz    dz2    dxz  x2-y2    tot
    1  0.000  0.023  0.000  0.003  0.000  0.000  0.000  0.000  0.000  0.026
    2  0.000  0.023  0.000  0.003  0.000  0.000  0.000  0.000  0.000  0.026
tot    0.000  0.045  0.000  0.006  0.000  0.000  0.000  0.000  0.000  0.051
 
band    10 # energy   13.10671176 # occ.  0.00000000
 
ion      s     py     pz     px    dxy    dyz    dz2    dxz  x2-y2    tot
    1  0.000  0.000  0.026  0.000  0.000  0.000  0.000  0.000  0.000  0.026
    2  0.000  0.000  0.026  0.000  0.000  0.000  0.000  0.000  0.000  0.026
tot    0.000  0.000  0.051  0.000  0.000  0.000  0.000  0.000  0.000  0.051
 
band    11 # energy   14.39522963 # occ.  0.00000000
 
ion      s     py     pz     px    dxy    dyz    dz2    dxz  x2-y2    tot
    1  0.074  0.002  0.000  0.014  0.000  0.000  0.000  0.000  0.000  0.090
    2  0.074  0.002  0.000  0.014  0.000  0.000  0.000  0.000  0.000  0.090
tot    0.148  0.004  0.000  0.029  0.000  0.000  0.000  0.000  0.000  0.180
 
band    12 # energy   18.11407323 # occ.  0.00000000
 
ion      s     py     pz     px    dxy    dyz    dz2    dxz  x2-y2    tot
    1  0.031  0.012  0.000  0.093  0.000  0.000  0.000  0.000  0.000  0.136
    2  0.031  0.012  0.000  0.093  0.000  0.000  0.000  0.000  0.000  0.136
tot    0.062  0.023  0.000  0.186  0.000  0.000  0.000  0.000  0.000  0.271
 

 k-point     4 :    0.42857143-0.00000000 0.00000000     weight = 0.02332362

band     1 # energy   -4.14628159 # occ.  1.00000000
 
ion      s     py     pz     px    dxy    dyz    dz2    dxz  x2-y2    tot
    1  0.218  0.002  0.000  0.013  0.000  0.000  0.000  0.000  0.000  0.232
    2  0.218  0.002  0.000  0.013  0.000  0.000  0.000  0.000  0.000  0.232
tot    0.436  0.003  0.000  0.026  0.000  0.000  0.000  0.000  0.000  0.465
 
band     2 # energy   -0.87791420 # occ.  1.00000000
 
ion      s     py     pz     px    dxy    dyz    dz2    dxz  x2-y2    tot
    1  0.103  0.010  0.000  0.083  0.000  0.000  0.000  0.000  0.000  0.197
    2  0.103  0.010  0.000  0.083  0.000  0.000  0.000  0.000  0.000  0.197
tot    0.207  0.021  0.000  0.166  0.000  0.000  0.000  0.000  0.000  0.394
 
band     3 # energy    4.55997891 # occ.  1.00000000
 
ion      s     py     pz     px    dxy    dyz    dz2    dxz  x2-y2    tot
    1  0.000  0.000  0.217  0.000  0.000  0.000  0.000  0.000  0.000  0.217
    2  0.000  0.000  0.217  0.000  0.000  0.000  0.000  0.000  0.000  0.217
tot    0.000  0.000  0.434  0.000  0.000  0.000  0.000  0.000  0.000  0.434
 
band     4 # energy    4.55998179 # occ.  1.00000000
 
ion      s     py     pz     px    dxy    dyz    dz2    dxz  x2-y2    tot
    1  0.000  0.193  0.000  0.024  0.000  0.000  0.000  0.000  0.000  0.217
    2  0.000  0.193  0.000  0.024  0.000  0.000  0.000  0.000  0.000  0.217
tot    0.000  0.386  0.000  0.048  0.000  0.000  0.000  0.000  0.000  0.434
 
band     5 # energy    7.20265836 # occ.  0.00000000
 
ion      s     py     pz     px    dxy    dyz    dz2    dxz  x2-y2    tot
    1  0.185  0.002  0.000  0.018  0.000  0.000  0.000  0.000  0.000  0.206
    2  0.185  0.002  0.000  0.018  0.000  0.000  0.000  0.000  0.000  0.206
tot    0.370  0.005  0.000  0.037  0.000  0.000  0.000  0.000  0.000  0.412
 
band     6 # energy    9.03664688 # occ.  0.00000000
 
ion      s     py     pz     px    dxy    dyz    dz2    dxz  x2-y2    tot
    1  0.000  0.087  0.000  0.011  0.000  0.000  0.000  0.000  0.000  0.097
    2  0.000  0.087  0.000  0.011  0.000  0.000  0.000  0.000  0.000  0.097
tot    0.000  0.173  0.000  0.022  0.000  0.000  0.000  0.000  0.000  0.195
 
band     7 # energy    9.03665573 # occ.  0.00000000
 
ion      s     py     pz     px    dxy    dyz    dz2    dxz  x2-y2    tot
    1  0.000  0.000  0.097  0.000  0.000  0.000  0.000  0.000  0.000  0.097
    2  0.000  0.000  0.097  0.000  0.000  0.000  0.000  0.000  0.000  0.097
tot    0.000  0.000  0.195  0.000  0.000  0.000  0.000  0.000  0.000  0.195
 
band     8 # energy   13.28807868 # occ.  0.00000000
 
ion      s     py     pz     px    dxy    dyz    dz2    dxz  x2-y2    tot
    1  0.005  0.006  0.000  0.051  0.000  0.000  0.000  0.000  0.000  0.063
    2  0.005  0.006  0.000  0.051  0.000  0.000  0.000  0.000  0.000  0.063
tot    0.010  0.013  0.000  0.102  0.000  0.000  0.000  0.000  0.000  0.125
 
band     9 # energy   15.12819557 # occ.  0.00000000
 
ion      s     py     pz     px    dxy    dyz    dz2    dxz  x2-y2    tot
    1  0.000  0.033  0.005  0.004  0.000  0.000  0.000  0.000  0.000  0.042
    2  0.000  0.033  0.005  0.004  0.000  0.000  0.000  0.000  0.000  0.042
tot    0.000  0.065  0.010  0.008  0.000  0.000  0.000  0.000  0.000  0.083
 
band    10 # energy   15.12819937 # occ.  0.00000000
 
ion      s     py     pz     px    dxy    dyz    dz2    dxz  x2-y2    tot
    1  0.000  0.004  0.037  0.001  0.000  0.000  0.000  0.000  0.000  0.041
    2  0.000  0.004  0.037  0.001  0.000  0.000  0.000  0.000  0.000  0.041
tot    0.000  0.009  0.073  0.001  0.000  0.000  0.000  0.000  0.000  0.083
 
band    11 # energy   16.10807269 # occ.  0.00000000
 
ion      s     py     pz     px    dxy    dyz    dz2    dxz  x2-y2    tot
    1  0.075  0.016  0.000  0.125  0.000  0.000  0.000  0.000  0.000  0.215
    2  0.075  0.016  0.000  0.125  0.000  0.000  0.000  0.000  0.000  0.215
tot    0.149  0.031  0.000  0.250  0.000  0.000  0.000  0.000  0.000  0.430
 
band    12 # energy   18.19027912 # occ.  0.00000000
 
ion      s     py     pz     px    dxy    dyz    dz2    dxz  x2-y2    tot
    1  0.000  0.046  0.020  0.006  0.000  0.000  0.000  0.000  0.000  0.072
    2  0.000  0.046  0.020  0.006  0.000  0.000  0.000  0.000  0.000  0.072
tot    0.000  0.092  0.041  0.011  0.000  0.000  0.000  0.000  0.000  0.144
 

 k-point     5 :    0.14285714 0.14285714 0.00000000     weight = 0.01749271

band     1 # energy   -5.86538689 # occ.  1.00000000
 
ion      s     py     pz     px    dxy    dyz    dz2    dxz  x2-y2    tot
    1  0.211  0.001  0.000  0.003  0.000  0.000  0.000  0.000  0.000  0.214
    2  0.211  0.001  0.000  0.003  0.000  0.000  0.000  0.000  0.000  0.214
tot    0.421  0.003  0.000  0.005  0.000  0.000  0.000  0.000  0.000  0.429
 
band     2 # energy    4.08118186 # occ.  1.00000000
 
ion      s     py     pz     px    dxy    dyz    dz2    dxz  x2-y2    tot
    1  0.110  0.046  0.000  0.091  0.000  0.000  0.000  0.000  0.000  0.248
    2  0.110  0.046  0.000  0.091  0.000  0.000  0.000  0.000  0.000  0.248
tot    0.221  0.091  0.000  0.183  0.000  0.000  0.000  0.000  0.000  0.495
 
band     3 # energy    4.74210087 # occ.  1.00000000
 
ion      s     py     pz     px    dxy    dyz    dz2    dxz  x2-y2    tot
    1  0.000  0.134  0.000  0.067  0.000  0.000  0.000  0.000  0.000  0.202
    2  0.000  0.134  0.000  0.067  0.000  0.000  0.000  0.000  0.000  0.202
tot    0.000  0.269  0.000  0.134  0.000  0.000  0.000  0.000  0.000  0.403
 
band     4 # energy    4.74210142 # occ.  1.00000000
 
ion      s     py     pz     px    dxy    dyz    dz2    dxz  x2-y2    tot
    1  0.000  0.000  0.201  0.000  0.000  0.000  0.000  0.000  0.000  0.202
    2  0.000  0.000  0.201  0.000  0.000  0.000  0.000  0.000  0.000  0.202
tot    0.000  0.000  0.403  0.000  0.000  0.000  0.000  0.000  0.000  0.403
 
band     5 # energy    7.52726405 # occ.  0.00000000
 
ion      s     py     pz     px    dxy    dyz    dz2    dxz  x2-y2    tot
    1  0.025  0.037  0.000  0.073  0.000  0.000  0.000  0.000  0.000  0.135
    2  0.025  0.037  0.000  0.073  0.000  0.000  0.000  0.000  0.000  0.135
tot    0.051  0.073  0.000  0.147  0.000  0.000  0.000  0.000  0.000  0.270
 
band     6 # energy    9.64345304 # occ.  0.00000000
 
ion      s     py     pz     px    dxy    dyz    dz2    dxz  x2-y2    tot
    1  0.000  0.110  0.000  0.055  0.000  0.000  0.000  0.000  0.000  0.165
    2  0.000  0.110  0.000  0.055  0.000  0.000  0.000  0.000  0.000  0.165
tot    0.000  0.220  0.000  0.110  0.000  0.000  0.000  0.000  0.000  0.330
 
band     7 # energy    9.64345619 # occ.  0.00000000
 
ion      s     py     pz     px    dxy    dyz    dz2    dxz  x2-y2    tot
    1  0.000  0.000  0.165  0.000  0.000  0.000  0.000  0.000  0.000  0.165
    2  0.000  0.000  0.165  0.000  0.000  0.000  0.000  0.000  0.000  0.165
tot    0.000  0.000  0.330  0.000  0.000  0.000  0.000  0.000  0.000  0.330
 
band     8 # energy   10.04710127 # occ.  0.00000000
 
ion      s     py     pz     px    dxy    dyz    dz2    dxz  x2-y2    tot
    1  0.173  0.025  0.000  0.051  0.000  0.000  0.000  0.000  0.000  0.249
    2  0.173  0.025  0.000  0.051  0.000  0.000  0.000  0.000  0.000  0.249
tot    0.346  0.051  0.000  0.101  0.000  0.000  0.000  0.000  0.000  0.498
 
band     9 # energy   12.09592491 # occ.  0.00000000
 
ion      s     py     pz     px    dxy    dyz    dz2    dxz  x2-y2    tot
    1  0.075  0.004  0.000  0.009  0.000  0.000  0.000  0.000  0.000  0.088
    2  0.075  0.004  0.000  0.009  0.000  0.000  0.000  0.000  0.000  0.088
tot    0.149  0.009  0.000  0.018  0.000  0.000  0.000  0.000  0.000  0.175
 
band    10 # energy   13.79689264 # occ.  0.00000000
 
ion      s     py     pz     px    dxy    dyz    dz2    dxz  x2-y2    tot
    1  0.000  0.000  0.000  0.000  0.000  0.000  0.000  0.000  0.000  0.000
    2  0.000  0.000  0.000  0.000  0.000  0.000  0.000  0.000  0.000  0.000
tot    0.000  0.000  0.000  0.000  0.000  0.000  0.000  0.000  0.000  0.000
 
band    11 # energy   14.79938986 # occ.  0.00000000
 
ion      s     py     pz     px    dxy    dyz    dz2    dxz  x2-y2    tot
    1  0.070  0.016  0.000  0.032  0.000  0.000  0.000  0.000  0.000  0.118
    2  0.070  0.016  0.000  0.032  0.000  0.000  0.000  0.000  0.000  0.118
tot    0.139  0.032  0.000  0.065  0.000  0.000  0.000  0.000  0.000  0.237
 
band    12 # energy   17.41054456 # occ.  0.00000000
 
ion      s     py     pz     px    dxy    dyz    dz2    dxz  x2-y2    tot
    1  0.000  0.013  0.016  0.007  0.000  0.000  0.000  0.000  0.000  0.036
    2  0.000  0.013  0.016  0.007  0.000  0.000  0.000  0.000  0.000  0.036
tot    0.000  0.026  0.031  0.013  0.000  0.000  0.000  0.000  0.000  0.071
 

 k-point     6 :    0.28571429 0.14285714 0.00000000     weight = 0.06997085

band     1 # energy   -5.25924088 # occ.  1.00000000
 
ion      s     py     pz     px    dxy    dyz    dz2    dxz  x2-y2    tot
    1  0.208  0.000  0.000  0.010  0.000  0.000  0.000  0.000  0.000  0.218
    2  0.208  0.000  0.000  0.010  0.000  0.000  0.000  0.000  0.000  0.218
tot    0.417  0.001  0.000  0.019  0.000  0.000  0.000  0.000  0.000  0.437
 
band     2 # energy    1.95522156 # occ.  1.00000000
 
ion      s     py     pz     px    dxy    dyz    dz2    dxz  x2-y2    tot
    1  0.117  0.011  0.000  0.103  0.000  0.000  0.000  0.000  0.000  0.230
    2  0.117  0.011  0.000  0.103  0.000  0.000  0.000  0.000  0.000  0.230
tot    0.233  0.021  0.000  0.205  0.000  0.000  0.000  0.000  0.000  0.460
 
band     3 # energy    4.15346354 # occ.  1.00000000
 
ion      s     py     pz     px    dxy    dyz    dz2    dxz  x2-y2    tot
    1  0.032  0.145  0.000  0.030  0.000  0.000  0.000  0.000  0.000  0.207
    2  0.032  0.145  0.000  0.030  0.000  0.000  0.000  0.000  0.000  0.207
tot    0.063  0.290  0.000  0.060  0.000  0.000  0.000  0.000  0.000  0.413
 
band     4 # energy    4.19985929 # occ.  1.00000000
 
ion      s     py     pz     px    dxy    dyz    dz2    dxz  x2-y2    tot
    1  0.000  0.000  0.201  0.000  0.000  0.000  0.000  0.000  0.000  0.201
    2  0.000  0.000  0.201  0.000  0.000  0.000  0.000  0.000  0.000  0.201
tot    0.000  0.000  0.402  0.000  0.000  0.000  0.000  0.000  0.000  0.402
 
band     5 # energy    7.71773526 # occ.  0.00000000
 
ion      s     py     pz     px    dxy    dyz    dz2    dxz  x2-y2    tot
    1  0.036  0.073  0.000  0.027  0.000  0.000  0.000  0.000  0.000  0.136
    2  0.036  0.073  0.000  0.027  0.000  0.000  0.000  0.000  0.000  0.136
tot    0.072  0.146  0.000  0.054  0.000  0.000  0.000  0.000  0.000  0.272
 
band     6 # energy    9.55959970 # occ.  0.00000000
 
ion      s     py     pz     px    dxy    dyz    dz2    dxz  x2-y2    tot
    1  0.096  0.101  0.000  0.012  0.000  0.000  0.000  0.000  0.000  0.210
    2  0.096  0.101  0.000  0.012  0.000  0.000  0.000  0.000  0.000  0.210
tot    0.192  0.202  0.000  0.025  0.000  0.000  0.000  0.000  0.000  0.420
 
band     7 # energy   10.18303247 # occ.  0.00000000
 
ion      s     py     pz     px    dxy    dyz    dz2    dxz  x2-y2    tot
    1  0.005  0.022  0.000  0.039  0.000  0.000  0.000  0.000  0.000  0.067
    2  0.005  0.022  0.000  0.039  0.000  0.000  0.000  0.000  0.000  0.067
tot    0.011  0.045  0.000  0.079  0.000  0.000  0.000  0.000  0.000  0.134
 
band     8 # energy   10.42047308 # occ.  0.00000000
 
ion      s     py     pz     px    dxy    dyz    dz2    dxz  x2-y2    tot
    1  0.000  0.000  0.150  0.000  0.000  0.000  0.000  0.000  0.000  0.150
    2  0.000  0.000  0.150  0.000  0.000  0.000  0.000  0.000  0.000  0.150
tot    0.000  0.000  0.300  0.000  0.000  0.000  0.000  0.000  0.000  0.300
 
band     9 # energy   13.78963191 # occ.  0.00000000
 
ion      s     py     pz     px    dxy    dyz    dz2    dxz  x2-y2    tot
    1  0.104  0.009  0.000  0.104  0.000  0.000  0.000  0.000  0.000  0.218
    2  0.104  0.009  0.000  0.104  0.000  0.000  0.000  0.000  0.000  0.218
tot    0.207  0.019  0.000  0.209  0.000  0.000  0.000  0.000  0.000  0.435
 
band    10 # energy   14.16685017 # occ.  0.00000000
 
ion      s     py     pz     px    dxy    dyz    dz2    dxz  x2-y2    tot
    1  0.000  0.000  0.015  0.000  0.000  0.000  0.000  0.000  0.000  0.015
    2  0.000  0.000  0.015  0.000  0.000  0.000  0.000  0.000  0.000  0.015
tot    0.000  0.000  0.029  0.000  0.000  0.000  0.000  0.000  0.000  0.029
 
band    11 # energy   15.72363260 # occ.  0.00000000
 
ion      s     py     pz     px    dxy    dyz    dz2    dxz  x2-y2    tot
    1  0.029  0.012  0.000  0.045  0.000  0.000  0.000  0.000  0.000  0.086
    2  0.029  0.012  0.000  0.045  0.000  0.000  0.000  0.000  0.000  0.086
tot    0.058  0.024  0.000  0.090  0.000  0.000  0.000  0.000  0.000  0.172
 
band    12 # energy   17.59993692 # occ.  0.00000000
 
ion      s     py     pz     px    dxy    dyz    dz2    dxz  x2-y2    tot
    1  0.028  0.000  0.000  0.055  0.000  0.000  0.000  0.000  0.000  0.083
    2  0.028  0.000  0.000  0.055  0.000  0.000  0.000  0.000  0.000  0.083
tot    0.056  0.000  0.000  0.111  0.000  0.000  0.000  0.000  0.000  0.167
 

 k-point     7 :    0.42857143 0.14285714 0.00000000     weight = 0.06997085

band     1 # energy   -4.24951915 # occ.  1.00000000
 
ion      s     py     pz     px    dxy    dyz    dz2    dxz  x2-y2    tot
    1  0.211  0.001  0.000  0.016  0.000  0.000  0.000  0.000  0.000  0.228
    2  0.211  0.001  0.000  0.016  0.000  0.000  0.000  0.000  0.000  0.228
tot    0.422  0.002  0.000  0.033  0.000  0.000  0.000  0.000  0.000  0.456
 
band     2 # energy   -0.23238125 # occ.  1.00000000
 
ion      s     py     pz     px    dxy    dyz    dz2    dxz  x2-y2    tot
    1  0.120  0.012  0.000  0.080  0.000  0.000  0.000  0.000  0.000  0.212
    2  0.120  0.012  0.000  0.080  0.000  0.000  0.000  0.000  0.000  0.212
tot    0.241  0.024  0.000  0.160  0.000  0.000  0.000  0.000  0.000  0.425
 
band     3 # energy    3.46170704 # occ.  1.00000000
 
ion      s     py     pz     px    dxy    dyz    dz2    dxz  x2-y2    tot
    1  0.042  0.135  0.000  0.027  0.000  0.000  0.000  0.000  0.000  0.204
    2  0.042  0.135  0.000  0.027  0.000  0.000  0.000  0.000  0.000  0.204
tot    0.084  0.270  0.000  0.054  0.000  0.000  0.000  0.000  0.000  0.408
 
band     4 # energy    4.01306694 # occ.  1.00000000
 
ion      s     py     pz     px    dxy    dyz    dz2    dxz  x2-y2    tot
    1  0.000  0.000  0.205  0.000  0.000  0.000  0.000  0.000  0.000  0.205
    2  0.000  0.000  0.205  0.000  0.000  0.000  0.000  0.000  0.000  0.205
tot    0.000  0.000  0.410  0.000  0.000  0.000  0.000  0.000  0.000  0.410
 
band     5 # energy    7.77381585 # occ.  0.00000000
 
ion      s     py     pz     px    dxy    dyz    dz2    dxz  x2-y2    tot
    1  0.065  0.046  0.000  0.021  0.000  0.000  0.000  0.000  0.000  0.133
    2  0.065  0.046  0.000  0.021  0.000  0.000  0.000  0.000  0.000  0.133
tot    0.131  0.092  0.000  0.043  0.000  0.000  0.000  0.000  0.000  0.266
 
band     6 # energy    9.47076337 # occ.  0.00000000
 
ion      s     py     pz     px    dxy    dyz    dz2    dxz  x2-y2    tot
    1  0.061  0.101  0.000  0.001  0.000  0.000  0.000  0.000  0.000  0.162
    2  0.061  0.101  0.000  0.001  0.000  0.000  0.000  0.000  0.000  0.162
tot    0.122  0.201  0.000  0.001  0.000  0.000  0.000  0.000  0.000  0.325
 
band     7 # energy   10.19153616 # occ.  0.00000000
 
ion      s     py     pz     px    dxy    dyz    dz2    dxz  x2-y2    tot
    1  0.000  0.000  0.113  0.000  0.000  0.000  0.000  0.000  0.000  0.113
    2  0.000  0.000  0.113  0.000  0.000  0.000  0.000  0.000  0.000  0.113
tot    0.000  0.000  0.226  0.000  0.000  0.000  0.000  0.000  0.000  0.226
 
band     8 # energy   11.40832763 # occ.  0.00000000
 
ion      s     py     pz     px    dxy    dyz    dz2    dxz  x2-y2    tot
    1  0.022  0.053  0.000  0.035  0.000  0.000  0.000  0.000  0.000  0.110
    2  0.022  0.053  0.000  0.035  0.000  0.000  0.000  0.000  0.000  0.110
tot    0.044  0.107  0.000  0.070  0.000  0.000  0.000  0.000  0.000  0.220
 
band     9 # energy   14.99889548 # occ.  0.00000000
 
ion      s     py     pz     px    dxy    dyz    dz2    dxz  x2-y2    tot
    1  0.006  0.006  0.000  0.046  0.000  0.000  0.000  0.000  0.000  0.059
    2  0.006  0.006  0.000  0.046  0.000  0.000  0.000  0.000  0.000  0.059
tot    0.012  0.013  0.000  0.093  0.000  0.000  0.000  0.000  0.000  0.118
 
band    10 # energy   15.89346965 # occ.  0.00000000
 
ion      s     py     pz     px    dxy    dyz    dz2    dxz  x2-y2    tot
    1  0.000  0.000  0.032  0.000  0.000  0.000  0.000  0.000  0.000  0.032