unknown system                          
           1
     3.333573    0.000000    1.924639
     1.111191    3.142924    1.924639
     0.000000    0.000000    3.849278
   Si
     2
Direct configuration=     1
   0.87500000  0.87500000  0.87500000
   0.12500000  0.12500000  0.12500000
