 vasp.6.4.2 20Jul23 (build Mar 15 2024 16:31:38) complex                        
  
 executed on             LinuxIFC date 2025.03.05  10:48:21
 running  120 mpi-ranks, on    3 nodes
 distrk:  each k-point on  120 cores,    1 groups
 distr:  one band on NCORE=  10 cores,   12 groups


--------------------------------------------------------------------------------------------------------


 INCAR:
   ALGO = Normal
   CSHIFT = 1e-05
   EDIFF = 1e-05
   ENAUG = 1360
   ENCUT = 680
   GGA = Pe
   HFSCREEN = 0.2
   ISMEAR = -5
   ISPIN = 1
   LAECHG = True
   LASPH = True
   LCHARG = False
   LDAU = False
   LELF = False
   LHFCALC = True
   LMAXMIX = 4
   LMIXTAU = True
   LOPTICS = True
   LORBIT = 11
   LREAL = False
   LVTOT = True
   LWAVE = False
   NBANDS = 144
   NCORE = 10
   NEDOS = 2392
   NELM = 200
   NELMIN = 5
   NSW = 0
   PREC = Accurate
   PRECFOCK = Fast
   SIGMA = 0.05

 POTCAR:    PAW_PBE Ga_d 06Jul2010                
 POTCAR:    PAW_PBE As 22Sep2009                  
 WARNING: For LVTOT=.TRUE., VASP.5.x writes the TOTAL local potential to the
     file LOCPOT. If you want only the Hartree contributions, use LVHAR=.TRUE.
     instead. 

 POTCAR:    PAW_PBE Ga_d 06Jul2010                
   VRHFIN =Ga: s2p1                                                                                 
   LEXCH  = PE                                                                                      
   EATOM  =  2148.8298 eV,  157.9345 Ry                                                             
                                                                                                    
   TITEL  = PAW_PBE Ga_d 06Jul2010                                                                  
   LULTRA =        F    use ultrasoft PP ?                                                          
   IUNSCR =        1    unscreen: 0-lin 1-nonlin 2-no                                               
   RPACOR =    1.700    partial core radius                                                         
   POMASS =   69.723; ZVAL   =   13.000    mass and valenz                                          
   RCORE  =    2.300    outmost cutoff radius                                                       
   RWIGS  =    2.300; RWIGS  =    1.217    wigner-seitz radius (au A)                               
   ENMAX  =  282.691; ENMIN  =  212.018 eV                                                          
   ICORE  =        3    local potential                                                             
   LCOR   =        T    correct aug charges                                                         
   LPAW   =        T    paw PP                                                                      
   EAUG   =  490.690                                                                                
   DEXC   =    0.000                                                                                
   RMAX   =    2.341    core radius for proj-oper                                                   
   RAUG   =    1.300    factor for augmentation sphere                                              
   RDEP   =    2.413    radius for radial grids                                                     
   RDEPT  =    1.856    core radius for aug-charge                                                  
                                                                                                    
   Atomic configuration                                                                             
    9 entries                                                                                       
     n  l   j            E        occ.                                                              
     1  0  0.50    -10228.7831   2.0000                                                             
     2  0  0.50     -1262.1604   2.0000                                                             
     2  1  1.50     -1098.6333   6.0000                                                             
     3  0  0.50      -148.1110   2.0000                                                             
     3  1  1.50       -98.8436   6.0000                                                             
     3  2  2.50       -19.1549  10.0000                                                             
     4  0  0.50        -8.9483   2.0000                                                             
     4  1  0.50        -2.5791   1.0000                                                             
     4  3  2.50        -2.7416   0.0000                                                             
   Description                                                                                      
     l       E           TYP  RCUT    TYP  RCUT                                                     
     2    -19.1549037     23  2.300                                                                 
     2     -5.4423304     23  2.300                                                                 
     0     -8.9483111     23  2.300                                                                 
     0     68.0291300     23  2.300                                                                 
     1     -2.5790802     23  2.100                                                                 
     1     81.6349560     23  2.300                                                                 
     3      6.8029130     23  2.300                                                                 
  local pseudopotential read in
  partial core-charges read in
  partial kinetic energy density read in
  atomic valenz-charges read in
  non local Contribution for L=           2  read in
    real space projection operators read in
  non local Contribution for L=           2  read in
    real space projection operators read in
  non local Contribution for L=           0  read in
    real space projection operators read in
  non local Contribution for L=           0  read in
    real space projection operators read in
  non local Contribution for L=           1  read in
    real space projection operators read in
  non local Contribution for L=           1  read in
    real space projection operators read in
    PAW grid and wavefunctions read in
 
   number of l-projection  operators is LMAX  =           6
   number of lm-projection operators is LMMAX =          18
 
 POTCAR:    PAW_PBE As 22Sep2009                  
   VRHFIN =As: s2p3                                                                                 
   LEXCH  = PE                                                                                      
   EATOM  =   170.1867 eV,   12.5084 Ry                                                             
                                                                                                    
   TITEL  = PAW_PBE As 22Sep2009                                                                    
   LULTRA =        F    use ultrasoft PP ?                                                          
   IUNSCR =        1    unscreen: 0-lin 1-nonlin 2-no                                               
   RPACOR =    1.900    partial core radius                                                         
   POMASS =   74.922; ZVAL   =    5.000    mass and valenz                                          
   RCORE  =    2.100    outmost cutoff radius                                                       
   RWIGS  =    2.300; RWIGS  =    1.217    wigner-seitz radius (au A)                               
   ENMAX  =  208.702; ENMIN  =  156.526 eV                                                          
   ICORE  =        3    local potential                                                             
   LCOR   =        T    correct aug charges                                                         
   LPAW   =        T    paw PP                                                                      
   EAUG   =  462.758                                                                                
   DEXC   =    0.000                                                                                
   RMAX   =    2.144    core radius for proj-oper                                                   
   RAUG   =    1.300    factor for augmentation sphere                                              
   RDEP   =    2.140    radius for radial grids                                                     
   RDEPT  =    1.956    core radius for aug-charge                                                  
                                                                                                    
   Atomic configuration                                                                             
   10 entries                                                                                       
     n  l   j            E        occ.                                                              
     1  0  0.50    -11718.0418   2.0000                                                             
     2  0  0.50     -1486.5454   2.0000                                                             
     2  1  1.50     -1303.3889   6.0000                                                             
     3  0  0.50      -190.2849   2.0000                                                             
     3  1  1.50      -133.6555   6.0000                                                             
     3  2  2.50       -40.6443  10.0000                                                             
     4  0  0.50       -14.4936   2.0000                                                             
     4  1  0.50        -5.1947   3.0000                                                             
     4  2  1.50        -5.4423   0.0000                                                             
     4  3  2.50        -5.4423   0.0000                                                             
   Description                                                                                      
     l       E           TYP  RCUT    TYP  RCUT                                                     
     0    -14.4935570     23  2.100                                                                 
     0    -11.9212055     23  2.100                                                                 
     1     -5.1947127     23  2.100                                                                 
     1     27.2116520     23  2.100                                                                 
     2     -5.4423304     23  2.100                                                                 
     3     -1.3605826      7  2.100                                                                 
  local pseudopotential read in
  partial core-charges read in
  partial kinetic energy density read in
  atomic valenz-charges read in
  non local Contribution for L=           0  read in
    real space projection operators read in
  non local Contribution for L=           0  read in
    real space projection operators read in
  non local Contribution for L=           1  read in
    real space projection operators read in
  non local Contribution for L=           1  read in
    real space projection operators read in
  non local Contribution for L=           2  read in
    real space projection operators read in
    PAW grid and wavefunctions read in
 
   number of l-projection  operators is LMAX  =           5
   number of lm-projection operators is LMMAX =          13
 
  PAW_PBE Ga_d 06Jul2010                :
 energy of atom  1       EATOM=-2148.8298
 kinetic energy error for atom=    0.0008 (will be added to EATOM!!)
  PAW_PBE As 22Sep2009                  :
 energy of atom  2       EATOM= -170.1867
 kinetic energy error for atom=    0.0003 (will be added to EATOM!!)
 
 
 POSCAR: Ga4 As4
  positions in direct lattice
  No initial velocities read in
 exchange correlation table for  LEXCH =        8
   RHO(1)=    0.500       N(1)  =     2000
   RHO(2)=  100.500       N(2)  =     4000
 


--------------------------------------------------------------------------------------------------------


 ion  position               nearest neighbor table
   1  0.000  0.000  0.000-   6 2.49   7 2.49   8 2.49   5 2.49
   2  0.500  0.500  0.000-   5 2.49   6 2.49   8 2.49   7 2.49
   3  0.500  0.000  0.500-   5 2.49   6 2.49   7 2.49   8 2.49
   4  0.000  0.500  0.500-   5 2.49   7 2.49   8 2.49   6 2.49
   5  0.250  0.250  0.250-   2 2.49   3 2.49   4 2.49   1 2.49
   6  0.250  0.750  0.750-   1 2.49   2 2.49   3 2.49   4 2.49
   7  0.750  0.750  0.250-   1 2.49   3 2.49   4 2.49   2 2.49
   8  0.750  0.250  0.750-   1 2.49   2 2.49   4 2.49   3 2.49
 
  LATTYP: Found a simple cubic cell.
 ALAT       =     5.7501821000
  
  Lattice vectors:
  
 A1 = (   5.7501821000,   0.0000000000,   0.0000000000)
 A2 = (  -0.0000000000,   5.7501821000,   0.0000000000)
 A3 = (   0.0000000000,   0.0000000000,   5.7501821000)


Analysis of symmetry for initial positions (statically):
=====================================================================
 Subroutine PRICEL returns following result:
 
  LATTYP: Found a face centered cubic cell.
 ALAT       =     5.7501821000
  
  Lattice vectors:
  
 A1 = (   2.8750910500,  -2.8750910500,   0.0000000000)
 A2 = (   2.8750910500,   0.0000000000,   2.8750910500)
 A3 = (   0.0000000000,  -2.8750910500,   2.8750910500)
 
   4 primitive cells build up your supercell.
 

 Routine SETGRP: Setting up the symmetry group for a 
 simple cubic supercell.


 Subroutine GETGRP returns: Found 24 space group operations
 (whereof 24 operations were pure point group operations)
 out of a pool of 48 trial point group operations.


The static configuration has the point symmetry T_d .


Analysis of symmetry for dynamics (positions and initial velocities):
=====================================================================
 Subroutine PRICEL returns following result:
 
  LATTYP: Found a face centered cubic cell.
 ALAT       =     5.7501821000
  
  Lattice vectors:
  
 A1 = (   2.8750910500,  -2.8750910500,   0.0000000000)
 A2 = (   2.8750910500,   0.0000000000,   2.8750910500)
 A3 = (   0.0000000000,  -2.8750910500,   2.8750910500)
 
   4 primitive cells build up your supercell.
 

 Routine SETGRP: Setting up the symmetry group for a 
 simple cubic supercell.


 Subroutine GETGRP returns: Found 24 space group operations
 (whereof 24 operations were pure point group operations)
 out of a pool of 48 trial point group operations.


The dynamic configuration has the point symmetry T_d .


 Subroutine INISYM returns: Found 24 space group operations
 (whereof 24 operations are pure point group operations),
 and found     4 'primitive' translations


----------------------------------------------------------------------------------------

                                     Primitive cell                                     

  volume of cell :      47.5319

  direct lattice vectors                    reciprocal lattice vectors
     2.875091050 -2.875091050  0.000000000     0.173907536 -0.173907536 -0.173907536
     2.875091050  0.000000000  2.875091050     0.173907536  0.173907536  0.173907536
     0.000000000 -2.875091050  2.875091050    -0.173907536 -0.173907536  0.173907536

  length of vectors
     4.065992756  4.065992756  4.065992756     0.301216688  0.301216688  0.301216688

  position of ions in fractional coordinates (direct lattice)
     0.000000000  0.000000000  0.000000000
     0.750000000  0.750000000  0.750000000

  ion indices of the primitive-cell ions
   primitive index   ion index
                 1           1
                 2           5

----------------------------------------------------------------------------------------

 
 
 KPOINTS: pymatgen with grid density = 668 / numbe

Automatic generation of k-mesh.
 Grid dimensions read from file:
 generate k-points for:    4    4    4

 Generating k-lattice:

  Cartesian coordinates                     Fractional coordinates (reciprocal lattice)
     0.043476884  0.000000000  0.000000000     0.250000000  0.000000000  0.000000000
     0.000000000  0.043476884  0.000000000     0.000000000  0.250000000  0.000000000
    -0.000000000 -0.000000000  0.043476884    -0.000000000 -0.000000000  0.250000000

  Length of vectors
     0.043476884  0.043476884  0.043476884

  Shift w.r.t. Gamma in fractional coordinates (k-lattice)
     0.000000000  0.000000000  0.000000000

 TETIRR: Found     30 inequivalent tetrahedra from      384
 
 Subroutine IBZKPT returns following result:
 ===========================================
 
 Found     10 irreducible k-points:
 
 Following reciprocal coordinates:
            Coordinates               Weight
  0.000000  0.000000  0.000000      1.000000
  0.250000 -0.000000  0.000000      6.000000
  0.500000 -0.000000  0.000000      3.000000
  0.250000  0.250000  0.000000     12.000000
  0.500000  0.250000  0.000000     12.000000
  0.500000  0.500000  0.000000      3.000000
  0.250000  0.250000  0.250000      8.000000
  0.500000  0.250000  0.250000     12.000000
  0.500000  0.500000  0.250000      6.000000
  0.500000  0.500000  0.500000      1.000000
 
 Following cartesian coordinates:
            Coordinates               Weight
  0.000000  0.000000  0.000000      1.000000
  0.043477  0.000000  0.000000      6.000000
  0.086954  0.000000  0.000000      3.000000
  0.043477  0.043477  0.000000     12.000000
  0.086954  0.043477  0.000000     12.000000
  0.086954  0.086954  0.000000      3.000000
  0.043477  0.043477  0.043477      8.000000
  0.086954  0.043477  0.043477     12.000000
  0.086954  0.086954  0.043477      6.000000
  0.086954  0.086954  0.086954      1.000000
 
 
 Subroutine IBZKPT_HF returns following result:
 ==============================================
 
 Found     64 k-points in 1st BZ
 the following     64 k-points will be used (e.g. in the exchange kernel)
 Following reciprocal coordinates:   # in IRBZ
  0.000000  0.000000  0.000000    0.01562500   1 t-inv F
  0.250000 -0.000000  0.000000    0.01562500   2 t-inv F
  0.500000 -0.000000  0.000000    0.01562500   3 t-inv F
  0.250000  0.250000  0.000000    0.01562500   4 t-inv F
  0.500000  0.250000  0.000000    0.01562500   5 t-inv F
  0.500000  0.500000  0.000000    0.01562500   6 t-inv F
  0.250000  0.250000  0.250000    0.01562500   7 t-inv F
  0.500000  0.250000  0.250000    0.01562500   8 t-inv F
  0.500000  0.500000  0.250000    0.01562500   9 t-inv F
  0.500000  0.500000  0.500000    0.01562500  10 t-inv F
  0.000000  0.250000 -0.000000    0.01562500   2 t-inv F
 -0.000000  0.000000  0.250000    0.01562500   2 t-inv F
 -0.000000 -0.250000  0.000000    0.01562500   2 t-inv F
  0.000000  0.000000 -0.250000    0.01562500   2 t-inv F
 -0.250000  0.000000  0.000000    0.01562500   2 t-inv F
  0.000000  0.500000 -0.000000    0.01562500   3 t-inv F
 -0.000000  0.000000  0.500000    0.01562500   3 t-inv F
  0.000000  0.250000  0.250000    0.01562500   4 t-inv F
  0.250000  0.000000  0.250000    0.01562500   4 t-inv F
  0.250000 -0.250000  0.000000    0.01562500   4 t-inv F
  0.250000  0.000000 -0.250000    0.01562500   4 t-inv F
  0.000000 -0.250000 -0.250000    0.01562500   4 t-inv F
 -0.250000 -0.250000  0.000000    0.01562500   4 t-inv F
  0.000000 -0.250000  0.250000    0.01562500   4 t-inv F
 -0.250000  0.000000  0.250000    0.01562500   4 t-inv F
 -0.250000  0.250000  0.000000    0.01562500   4 t-inv F
 -0.250000  0.000000 -0.250000    0.01562500   4 t-inv F
  0.000000  0.250000 -0.250000    0.01562500   4 t-inv F
  0.000000  0.500000  0.250000    0.01562500   5 t-inv F
  0.250000  0.000000  0.500000    0.01562500   5 t-inv F
  0.250000 -0.500000  0.000000    0.01562500   5 t-inv F
  0.500000  0.000000 -0.250000    0.01562500   5 t-inv F
  0.000000 -0.250000 -0.500000    0.01562500   5 t-inv F
 -0.500000 -0.250000  0.000000    0.01562500   5 t-inv F
 -0.250000  0.000000  0.500000    0.01562500   5 t-inv F
 -0.250000  0.500000  0.000000    0.01562500   5 t-inv F
  0.000000  0.250000 -0.500000    0.01562500   5 t-inv F
  0.000000 -0.500000 -0.250000    0.01562500   5 t-inv F
 -0.500000  0.000000  0.250000    0.01562500   5 t-inv F
  0.000000  0.500000  0.500000    0.01562500   6 t-inv F
  0.500000  0.000000  0.500000    0.01562500   6 t-inv F
  0.250000 -0.250000 -0.250000    0.01562500   7 t-inv F
 -0.250000 -0.250000  0.250000    0.01562500   7 t-inv F
 -0.250000  0.250000 -0.250000    0.01562500   7 t-inv F
  0.250000  0.500000  0.250000    0.01562500   8 t-inv F
  0.250000  0.250000  0.500000    0.01562500   8 t-inv F
  0.250000 -0.500000 -0.250000    0.01562500   8 t-inv F
  0.500000 -0.250000 -0.250000    0.01562500   8 t-inv F
  0.250000 -0.250000 -0.500000    0.01562500   8 t-inv F
 -0.500000 -0.250000  0.250000    0.01562500   8 t-inv F
 -0.250000 -0.500000  0.250000    0.01562500   8 t-inv F
 -0.250000 -0.250000  0.500000    0.01562500   8 t-inv F
 -0.250000  0.500000 -0.250000    0.01562500   8 t-inv F
 -0.500000  0.250000 -0.250000    0.01562500   8 t-inv F
 -0.250000  0.250000 -0.500000    0.01562500   8 t-inv F
  0.250000  0.500000  0.500000    0.01562500   9 t-inv F
  0.500000  0.250000  0.500000    0.01562500   9 t-inv F
  0.500000 -0.500000 -0.250000    0.01562500   9 t-inv F
  0.500000 -0.250000 -0.500000    0.01562500   9 t-inv F
 -0.250000 -0.500000  0.500000    0.01562500   9 t-inv F
 -0.250000 -0.250000 -0.250000    0.01562500   7 t-inv T
 -0.250000  0.250000  0.250000    0.01562500   7 t-inv T
  0.250000  0.250000 -0.250000    0.01562500   7 t-inv T
  0.250000 -0.250000  0.250000    0.01562500   7 t-inv T


--------------------------------------------------------------------------------------------------------




 Dimension of arrays:
   k-points           NKPTS =     10   k-points in BZ     NKDIM =     64   number of bands    NBANDS=    144
   number of dos      NEDOS =   2392   number of ions     NIONS =      8
   non local maximal  LDIM  =      6   non local SUM 2l+1 LMDIM =     18
   total plane-waves  NPLWV = 125000
   max r-space proj   IRMAX =      1   max aug-charges    IRDMAX=  27402
   dimension x,y,z NGX =    50 NGY =   50 NGZ =   50
   dimension x,y,z NGXF=   100 NGYF=  100 NGZF=  100
   support grid    NGXF=   100 NGYF=  100 NGZF=  100
   ions per type =               4   4
   NGX,Y,Z   is equivalent  to a cutoff of  14.46, 14.46, 14.46 a.u.
   NGXF,Y,Z  is equivalent  to a cutoff of  28.91, 28.91, 28.91 a.u.

 SYSTEM =  unknown system                          
 POSCAR =  Ga4 As4                                 

 Startparameter for this run:
   NWRITE =      2    write-flag & timer
   PREC   = accura    normal or accurate (medium, high low for compatibility)
   ISTART =      1    job   : 0-new  1-cont  2-samecut
   ICHARG =      0    charge: 1-file 2-atom 10-const
   ISPIN  =      1    spin polarized calculation?
   LNONCOLLINEAR =      F non collinear calculations
   LSORBIT =      F    spin-orbit coupling
   INIWAV =      1    electr: 0-lowe 1-rand  2-diag
   LASPH  =      T    aspherical Exc in radial PAW
 Electronic Relaxation 1
   ENCUT  =  680.0 eV  49.98 Ry    7.07 a.u.  12.23 12.23 12.23*2*pi/ulx,y,z
   ENINI  =  680.0     initial cutoff
   ENAUG  = 1360.0 eV  augmentation charge cutoff
   NELM   =    200;   NELMIN=  5; NELMDL=  0     # of ELM steps 
   EDIFF  = 0.1E-04   stopping-criterion for ELM
   LREAL  =      F    real-space projection
   NLSPLINE    = F    spline interpolate recip. space projectors
   LCOMPAT=      F    compatible to vasp.4.4
   GGA_COMPAT  = T    GGA compatible to vasp.4.4-vasp.4.6
   LMAXPAW     = -100 max onsite density
   LMAXMIX     =    4 max onsite mixed and CHGCAR
   VOSKOWN=      0    Vosko Wilk Nusair interpolation
   ROPT   =    0.00000   0.00000
 Ionic relaxation
   EDIFFG = 0.1E-03   stopping-criterion for IOM
   NSW    =      0    number of steps for IOM
   NBLOCK =      1;   KBLOCK =      1    inner block; outer block 
   IBRION =     -1    ionic relax: 0-MD 1-quasi-New 2-CG
   NFREE  =      0    steps in history (QN), initial steepest desc. (CG)
   ISIF   =      0    stress and relaxation
   IWAVPR =     10    prediction:  0-non 1-charg 2-wave 3-comb
   ISYM   =      3    0-nonsym 1-usesym 2-fastsym
   LCORR  =      T    Harris-Foulkes like correction to forces

   POTIM  = 0.5000    time-step for ionic-motion
   TEIN   =    0.0    initial temperature
   TEBEG  =    0.0;   TEEND  =   0.0 temperature during run
   SMASS  =  -3.00    Nose mass-parameter (am)
   estimated Nose-frequenzy (Omega)   =  0.10E-29 period in steps = 0.13E+47 mass=  -0.756E-27a.u.
   SCALEE = 1.0000    scale energy and forces
   NPACO  =    256;   APACO  = 10.0  distance and # of slots for P.C.
   PSTRESS=    0.0 pullay stress

  Mass of Ions in am
   POMASS =  69.72 74.92
  Ionic Valenz
   ZVAL   =  13.00  5.00
  Atomic Wigner-Seitz radii
   RWIGS  =  -1.00 -1.00
  virtual crystal weights 
   VCA    =   1.00  1.00
   NELECT =      72.0000    total number of electrons
   NUPDOWN=      -1.0000    fix difference up-down

 DOS related values:
   EMIN   =  10.00;   EMAX   =-10.00  energy-range for DOS
   EFERMI =   0.00;   METHOD = LEGACY      
   ISMEAR =    -5;   SIGMA  =   0.05  broadening in eV -4-tet -1-fermi 0-gaus

 Electronic relaxation 2 (details)
   IALGO  =     38    algorithm
   LDIAG  =      T    sub-space diagonalisation (order eigenvalues)
   LSUBROT=      F    optimize rotation matrix (better conditioning)
   TURBO    =      0    0=normal 1=particle mesh
   IRESTART =      0    0=no restart 2=restart with 2 vectors
   NREBOOT  =      0    no. of reboots
   NMIN     =      0    reboot dimension
   EREF     =   0.00    reference energy to select bands
   IMIX   =      1    mixing-type and parameters
     AMIX     =   0.40;   BMIX     =  1.00
     AMIX_MAG =   1.60;   BMIX_MAG =  1.00
     AMIN     =   0.10
     WC   =   100.;   INIMIX=   1;  MIXPRE=   1;  MAXMIX= -45

 Intra band minimization:
   WEIMIN = 0.0000     energy-eigenvalue tresh-hold
   EBREAK =  0.17E-07  absolut break condition
   DEPER  =   0.30     relativ break condition  

   TIME   =   0.40     timestep for ELM

  volume/ion in A,a.u.               =      23.77       160.38
  Fermi-wavevector in a.u.,A,eV,Ry     =   1.184415  2.238221 19.086796  1.402840
  Thomas-Fermi vector in A             =   2.320630
 
 Write flags
   LWAVE        =      F    write WAVECAR
   LDOWNSAMPLE  =      F    k-point downsampling of WAVECAR
   LCHARG       =      F    write CHGCAR
   LVTOT        =      T    write LOCPOT, total local potential
   LVHAR        =      F    write LOCPOT, Hartree potential only
   LELF         =      F    write electronic localiz. function (ELF)
   LORBIT       =     11    0 simple, 1 ext, 2 COOP (PROOUT), +10 PAW based schemes


 Dipole corrections
   LMONO  =      F    monopole corrections only (constant potential shift)
   LDIPOL =      F    correct potential (dipole corrections)
   IDIPOL =      0    1-x, 2-y, 3-z, 4-all directions 
   EPSILON=  1.0000000 bulk dielectric constant

 Exchange correlation treatment:
   GGA     =    PE    GGA type
   LEXCH   =     8    internal setting for exchange type
   LIBXC   =     F    Libxc                    
   VOSKOWN =     0    Vosko Wilk Nusair interpolation
   EXXOEP  =     0    0=HF, 1=EXX-LHF (local Hartree Fock) 2=EXX OEP
   LHFCALC =     T    Hartree Fock is set to
   LSYMGRAD=     F    symmetrize gradient (conserves proper symmetry)
   PRECFOCK=fast      Normal, Fast or Accurate (Low or Medium for compatibility)
   LRHFCALC=     F    long range Hartree Fock
   LRSCOR  =     F    long range correlation only (use DFT for short range part)
   LTHOMAS =     F    Thomas Fermi screening in HF
   LMODELHF=     F    short range full HF, long range fraction AEXX
   FOCKCORR=     1    mode to apply convergence corrections
   LFOCKACE=     T    use Adeptively-Compressed-Exchange operator
   ENCUT4O =  -1.0   cutoff for four orbital integrals eV
   LMAXFOCK=     4    L truncation for augmentation on plane wave grid
   LMAXFOCKAE=  -1    L truncation for all-electron charge restoration on plane wave grid
   NMAXFOCKAE=   1    number of basis functions for all-electron charge restoration
   LFOCKAEDFT=     F  apply the AE augmentation even for DFT
   NKREDX  =     1    reduce k-point grid by
   NKREDY  =     1    reduce k-point grid by
   NKREDZ  =     1    reduce k-point grid by
   SHIFTRED=     F    shift reduced grid of Gamma
   HFKIDENT=     F    idential grid for each k-point
   ODDONLY =     F    use only odd q-grid points
   EVENONLY=     F    use only even q-grid points
   HFALPHA =   -1.0000 decay constant for conv. correction
   MCALPHA =    0.0000 extent of test-charge in conv. correction in multipole expansion
   AEXX    =    0.2500 exact exchange contribution
   HFSCREEN=    0.2000 screening length (either q_TF or 0.3 A-1)
   HFSCREENC=   0.2000 screening length for correlation (either q_TF or 0.3 A-1)
   HFRCUT  =    0.0000 spherical cutoff for potential kernel
   ALDAX   =    0.7500 LDA exchange part
   AGGAX   =    0.7500 GGA exchange part
   ALDAC   =    1.0000 LDA correlation
   AGGAC   =    1.0000 GGA correlation
   ENCUTFOCK=  -1.0 apply spherical cutoff to Coloumb kernel
   NBANDSGWLOW=     1    first orbital included in HF term
   NBLOCK_FOCK=    64    blocking factor in FOCK_ACC

 Linear response parameters
   LEPSILON=     F    determine dielectric tensor
   LRPA    =     F    only Hartree local field effects (RPA)
   LNABLA  =     F    use nabla operator in PAW spheres
   LVEL    =     F    velocity operator in full k-point grid
   CSHIFT  =0.0000    complex shift for real part using Kramers Kronig
   OMEGAMAX=  -1.0    maximum frequency
   DEG_THRESHOLD= 0.2000000E-02 threshold for treating states as degnerate
   RTIME   =   -0.100 relaxation time in fs
  (WPLASMAI=    0.000 imaginary part of plasma frequency in eV, 0.658/RTIME)
   DFIELD  = 0.0000000 0.0000000 0.0000000 field for delta impulse in time
 
  Optional k-point grid parameters
   LKPOINTS_OPT  =     F    use optional k-point grid
   KPOINTS_OPT_MODE=     1    mode for optional k-point grid
 
 Orbital magnetization related:
   ORBITALMAG=     F  switch on orbital magnetization
   LCHIMAG   =     F  perturbation theory with respect to B field
   DQ        =  0.001000  dq finite difference perturbation B field
   LLRAUG    =     F  two centre corrections for induced B field
   LBONE     =     F  B-component reconstruction in AE one-centre
   LVGVCALC  =     T  calculate vGv susceptibility
   LVGVAPPL  =     F  apply vGv susceptibility instead of pGv for G=0

 Random number generation:
   RANDOM_GENERATOR = DEFAULT
   PCG_SEED         = not used


--------------------------------------------------------------------------------------------------------


 Static calculation
 charge density and potential will be updated during run
 non-spin polarized calculation
 Variant of blocked Davidson
 Davidson routine will perform the subspace rotation
 perform sub-space diagonalisation
    after iterative eigenvector-optimisation
 Kerker-like  mixing scheme
 using additional bands          108
 reciprocal scheme for non local part
 use partial core corrections
 calculate Harris-corrections to forces 
   (improved forces if not selfconsistent)
 use gradient corrections 
 use of overlap-Matrix (Vanderbilt PP)
 Fermi weights with tetrahedron method with Bloechl corrections


--------------------------------------------------------------------------------------------------------


  energy-cutoff  :      680.00
  volume of cell :      190.13
      direct lattice vectors                 reciprocal lattice vectors
     5.750182100  0.000000000  0.000000000     0.173907536  0.000000000  0.000000000
    -0.000000000  5.750182100  0.000000000     0.000000000  0.173907536  0.000000000
     0.000000000  0.000000000  5.750182100    -0.000000000 -0.000000000  0.173907536

  length of vectors
     5.750182100  5.750182100  5.750182100     0.173907536  0.173907536  0.173907536


 
 old parameters found on file WAVECAR:
  energy-cutoff  :      680.00
  volume of cell :      181.60
      direct lattice vectors                 reciprocal lattice vectors
     5.662893029  0.000000000  0.000000000     0.176588185  0.000000000  0.000000000
    -0.000000000  5.662893029  0.000000000     0.000000000  0.176588185  0.000000000
     0.000000000  0.000000000  5.662893029    -0.000000000 -0.000000000  0.176588185

  length of vectors

 
 k-points in units of 2pi/SCALE and weight: pymatgen with grid density = 668 / numbe
   0.00000000  0.00000000  0.00000000       0.016
   0.04347688  0.00000000  0.00000000       0.094
   0.08695377  0.00000000  0.00000000       0.047
   0.04347688  0.04347688  0.00000000       0.188
   0.08695377  0.04347688  0.00000000       0.188
   0.08695377  0.08695377  0.00000000       0.047
   0.04347688  0.04347688  0.04347688       0.125
   0.08695377  0.04347688  0.04347688       0.188
   0.08695377  0.08695377  0.04347688       0.094
   0.08695377  0.08695377  0.08695377       0.016
 
 k-points in reciprocal lattice and weights: pymatgen with grid density = 668 / numbe
   0.00000000  0.00000000  0.00000000       0.016
   0.25000000 -0.00000000  0.00000000       0.094
   0.50000000 -0.00000000  0.00000000       0.047
   0.25000000  0.25000000  0.00000000       0.188
   0.50000000  0.25000000  0.00000000       0.188
   0.50000000  0.50000000  0.00000000       0.047
   0.25000000  0.25000000  0.25000000       0.125
   0.50000000  0.25000000  0.25000000       0.188
   0.50000000  0.50000000  0.25000000       0.094
   0.50000000  0.50000000  0.50000000       0.016
 
 position of ions in fractional coordinates (direct lattice) 
   0.00000000  0.00000000  0.00000000
   0.50000000  0.50000000  0.00000000
   0.50000000  0.00000000  0.50000000
   0.00000000  0.50000000  0.50000000
   0.25000000  0.25000000  0.25000000
   0.25000000  0.75000000  0.75000000
   0.75000000  0.75000000  0.25000000
   0.75000000  0.25000000  0.75000000
 
 position of ions in cartesian coordinates  (Angst):
   0.00000000  0.00000000  0.00000000
   2.87509105  2.87509105  0.00000000
   2.87509105  0.00000000  2.87509105
  -0.00000000  2.87509105  2.87509105
   1.43754552  1.43754552  1.43754553
   1.43754552  4.31263657  4.31263657
   4.31263657  4.31263657  1.43754553
   4.31263657  1.43754552  4.31263657
 


--------------------------------------------------------------------------------------------------------


 k-point   1 :   0.0000 0.0000 0.0000  plane waves:    7689
 k-point   2 :   0.2500-0.0000 0.0000  plane waves:    7628
 k-point   3 :   0.5000-0.0000 0.0000  plane waves:    7672
 k-point   4 :   0.2500 0.2500 0.0000  plane waves:    7641
 k-point   5 :   0.5000 0.2500 0.0000  plane waves:    7652
 k-point   6 :   0.5000 0.5000 0.0000  plane waves:    7660
 k-point   7 :   0.2500 0.2500 0.2500  plane waves:    7655
 k-point   8 :   0.5000 0.2500 0.2500  plane waves:    7660
 k-point   9 :   0.5000 0.5000 0.2500  plane waves:    7652
 k-point  10 :   0.5000 0.5000 0.5000  plane waves:    7664

 maximum and minimum number of plane-waves per node :       790      740

 maximum number of plane-waves:      7689
 maximum index in each direction: 
   IXMAX=   12   IYMAX=   12   IZMAX=   12
   IXMIN=  -12   IYMIN=  -12   IZMIN=  -12


 parallel 3D FFT for wavefunctions:
    minimum data exchange during FFTs selected (reduces bandwidth)
 parallel 3D FFT for charge:
    minimum data exchange during FFTs selected (reduces bandwidth)


 FFT grid for exact exchange (Hartree Fock) 
  NGX = 28; NGY = 28; NGZ = 28

 
 Radii for the augmentation spheres in the non-local exchange
 for species   1 augmentation radius   1.392 (default was   1.031)
       energy cutoff for augmentation   2720.0
 for species   2 augmentation radius   1.434 (default was   1.062)
       energy cutoff for augmentation   2720.0

 real space projection operators:
  total allocation   :       2089.06 KBytes
  max/ min on nodes  :        232.03        153.12

 Maximum index for augmentation-charges in exchange          145
  SETUP_FOCK is finished

 total amount of memory used by VASP MPI-rank0    36548. kBytes
=======================================================================

   base      :      30000. kBytes
   nonl-proj :       2454. kBytes
   fftplans  :        882. kBytes
   grid      :       1072. kBytes
   one-center:         15. kBytes
   HF        :         64. kBytes
   nonlr-proj:        449. kBytes
   wavefun   :       1612. kBytes
 
     INWAV:  cpu time      0.5231: real time      0.6704
 charge density for first step will be calculated from the start-wavefunctions


--------------------------------------------------------------------------------------------------------


 Maximum index for augmentation-charges         1005 (set IRDMAX)


--------------------------------------------------------------------------------------------------------


 initial charge from wavefunction
 First call to EWALD:  gamma=   0.308
 Maximum number of real-space cells 3x 3x 3
 Maximum number of reciprocal cells 3x 3x 3

    FEWALD:  cpu time      0.0022: real time      0.0023


--------------------------------------- Ionic step        1  -------------------------------------------




--------------------------------------- Iteration      1(   1)  ---------------------------------------


    POTLOK:  cpu time      0.0231: real time      0.0271
    SETDIJ:  cpu time      0.4289: real time      0.4304
     EDDAV:  cpu time     51.6910: real time     52.7636
 BZINTS: Fermi energy:    2.862241;   72.000000 electrons
         Band energy:-0.748443E+03;  BLOECHL correction:    0.000000
       DOS:  cpu time      0.0134: real time      0.0139
    CHARGE:  cpu time      0.0632: real time      0.0634
    MIXING:  cpu time      0.0009: real time      0.0009
    --------------------------------------------
      LOOP:  cpu time     52.2207: real time     53.2993

 eigenvalue-minimisations  :  2916
 total energy-change (2. order) :-0.3993384E+02  (-0.1024483E+01)
 number of electron      71.9999995 magnetization 
 augmentation part       31.2405381 magnetization 

 Free energy of the ion-electron system (eV)
  ---------------------------------------------------
  alpha Z        PSCENC =       229.21542276
  Ewald energy   TEWEN  =     -4976.98459255
  -Hartree energ DENC   =     -2886.17175223
  -exchange      EXHF   =       164.24938358
  -V(xc)+E(xc)   XCENC  =        92.56882011
  PAW double counting   =      8393.98031645    -9571.22943213
  entropy T*S    EENTRO =         0.00000000
  eigenvalues    EBANDS =      -748.44297646
  atomic energy  EATOM  =      9262.88096869
  Solvation  Ediel_sol  =         0.00000000
  ---------------------------------------------------
  free energy    TOTEN  =       -39.93384179 eV

  energy without entropy =      -39.93384179  energy(sigma->0) =      -39.93384179
  exchange ACFDT corr.  =         0.00000000  see jH, gK, PRB 81, 115126


--------------------------------------------------------------------------------------------------------




--------------------------------------- Iteration      1(   2)  ---------------------------------------


    POTLOK:  cpu time      0.0321: real time      0.0357
    SETDIJ:  cpu time      0.4345: real time      0.4355
     EDDAV:  cpu time     51.1712: real time     51.3996
 BZINTS: Fermi energy:    2.928284;   72.000000 electrons
         Band energy:-0.690195E+03;  BLOECHL correction:    0.000000
       DOS:  cpu time      0.0107: real time      0.0109
    CHARGE:  cpu time      0.0505: real time      0.0506
    MIXING:  cpu time      0.0001: real time      0.0001
    --------------------------------------------
      LOOP:  cpu time     51.6991: real time     51.9324

 eigenvalue-minimisations  :  3300
 total energy-change (2. order) : 0.3092234E+00  (-0.5339043E+00)
 number of electron      71.9999995 magnetization 
 augmentation part       31.0997223 magnetization 

 Free energy of the ion-electron system (eV)
  ---------------------------------------------------
  alpha Z        PSCENC =       229.21542276
  Ewald energy   TEWEN  =     -4976.98459255
  -Hartree energ DENC   =     -2917.71289093
  -exchange      EXHF   =       166.13811153
  -V(xc)+E(xc)   XCENC  =        93.47100705
  PAW double counting   =      8426.06724028    -9632.50451157
  entropy T*S    EENTRO =         0.00000000
  eigenvalues    EBANDS =      -690.19537367
  atomic energy  EATOM  =      9262.88096869
  Solvation  Ediel_sol  =         0.00000000
  ---------------------------------------------------
  free energy    TOTEN  =       -39.62461840 eV

  energy without entropy =      -39.62461840  energy(sigma->0) =      -39.62461840
  exchange ACFDT corr.  =         0.00000000  see jH, gK, PRB 81, 115126


--------------------------------------------------------------------------------------------------------




--------------------------------------- Iteration      1(   3)  ---------------------------------------


    POTLOK:  cpu time      0.0173: real time      0.0327
    SETDIJ:  cpu time      0.4230: real time      0.4240
     EDDAV:  cpu time     50.8323: real time     50.9521
 BZINTS: Fermi energy:    2.991892;   72.000000 electrons
         Band energy:-0.659317E+03;  BLOECHL correction:    0.000000
       DOS:  cpu time      0.0114: real time      0.0115
    CHARGE:  cpu time      0.0505: real time      0.0506
    MIXING:  cpu time      0.0001: real time      0.0001
    --------------------------------------------
      LOOP:  cpu time     51.3347: real time     51.4711

 eigenvalue-minimisations  :  3684
 total energy-change (2. order) : 0.1177024E+00  (-0.1145158E+00)
 number of electron      71.9999995 magnetization 
 augmentation part       30.9647378 magnetization 

 Free energy of the ion-electron system (eV)
  ---------------------------------------------------
  alpha Z        PSCENC =       229.21542276
  Ewald energy   TEWEN  =     -4976.98459255
  -Hartree energ DENC   =     -2934.52631159
  -exchange      EXHF   =       166.10774494
  -V(xc)+E(xc)   XCENC  =        93.94175953
  PAW double counting   =      8377.81238344    -9598.63771621
  entropy T*S    EENTRO =         0.00000000
  eigenvalues    EBANDS =      -659.31657505
  atomic energy  EATOM  =      9262.88096869
  Solvation  Ediel_sol  =         0.00000000
  ---------------------------------------------------
  free energy    TOTEN  =       -39.50691603 eV

  energy without entropy =      -39.50691603  energy(sigma->0) =      -39.50691603
  exchange ACFDT corr.  =         0.00000000  see jH, gK, PRB 81, 115126


--------------------------------------------------------------------------------------------------------




--------------------------------------- Iteration      1(   4)  ---------------------------------------


    POTLOK:  cpu time      0.0171: real time      0.0344
    SETDIJ:  cpu time      0.4208: real time      0.4218
     EDDAV:  cpu time     51.3116: real time     51.4326
 BZINTS: Fermi energy:    3.024906;   72.000000 electrons
         Band energy:-0.652826E+03;  BLOECHL correction:    0.000000
       DOS:  cpu time      0.0120: real time      0.0121
    CHARGE:  cpu time      0.0572: real time      0.0574
    MIXING:  cpu time      0.0002: real time      0.0002
    --------------------------------------------
      LOOP:  cpu time     51.8189: real time     51.9585

 eigenvalue-minimisations  :  3552
 total energy-change (2. order) :-0.2807720E-02  (-0.1642215E-01)
 number of electron      71.9999995 magnetization 
 augmentation part       30.9338093 magnetization 

 Free energy of the ion-electron system (eV)
  ---------------------------------------------------
  alpha Z        PSCENC =       229.21542276
  Ewald energy   TEWEN  =     -4976.98459255
  -Hartree energ DENC   =     -2938.64382127
  -exchange      EXHF   =       165.74809013
  -V(xc)+E(xc)   XCENC  =        94.05198902
  PAW double counting   =      8330.14469758    -9553.09690119
  entropy T*S    EENTRO =         0.00000000
  eigenvalues    EBANDS =      -652.82557693
  atomic energy  EATOM  =      9262.88096869
  Solvation  Ediel_sol  =         0.00000000
  ---------------------------------------------------
  free energy    TOTEN  =       -39.50972375 eV

  energy without entropy =      -39.50972375  energy(sigma->0) =      -39.50972375
  exchange ACFDT corr.  =         0.00000000  see jH, gK, PRB 81, 115126


--------------------------------------------------------------------------------------------------------




--------------------------------------- Iteration      1(   5)  ---------------------------------------


    POTLOK:  cpu time      0.0218: real time      0.0361
    SETDIJ:  cpu time      0.4308: real time      0.4318
     EDDAV:  cpu time     51.9031: real time     52.0287
 BZINTS: Fermi energy:    3.042279;   72.000000 electrons
         Band energy:-0.652065E+03;  BLOECHL correction:    0.000000
       DOS:  cpu time      0.0108: real time      0.0109
    CHARGE:  cpu time      0.0547: real time      0.0548
    MIXING:  cpu time      0.0001: real time      0.0001
    --------------------------------------------
      LOOP:  cpu time     52.4213: real time     52.5625

 eigenvalue-minimisations  :  3576
 total energy-change (2. order) : 0.1408273E-02  (-0.7086111E-03)
 number of electron      71.9999995 magnetization 
 augmentation part       30.9389290 magnetization 

 Free energy of the ion-electron system (eV)
  ---------------------------------------------------
  alpha Z        PSCENC =       229.21542276
  Ewald energy   TEWEN  =     -4976.98459255
  -Hartree energ DENC   =     -2939.61806379
  -exchange      EXHF   =       165.59612356
  -V(xc)+E(xc)   XCENC  =        94.06658557
  PAW double counting   =      8294.28642664    -9516.88661755
  entropy T*S    EENTRO =         0.00000000
  eigenvalues    EBANDS =      -652.06456881
  atomic energy  EATOM  =      9262.88096869
  Solvation  Ediel_sol  =         0.00000000
  ---------------------------------------------------
  free energy    TOTEN  =       -39.50831548 eV

  energy without entropy =      -39.50831548  energy(sigma->0) =      -39.50831548
  exchange ACFDT corr.  =         0.00000000  see jH, gK, PRB 81, 115126


--------------------------------------------------------------------------------------------------------




--------------------------------------- Iteration      1(   6)  ---------------------------------------


    POTLOK:  cpu time      0.0181: real time      0.0344
    SETDIJ:  cpu time      0.4236: real time      0.4246
     EDDAV:  cpu time     50.7051: real time     50.8245
 BZINTS: Fermi energy:    3.042452;   72.000000 electrons
         Band energy:-0.651526E+03;  BLOECHL correction:    0.000000
       DOS:  cpu time      0.0117: real time      0.0118
    CHARGE:  cpu time      0.0494: real time      0.0496
    MIXING:  cpu time      0.0001: real time      0.0001
    --------------------------------------------
      LOOP:  cpu time     51.2079: real time     51.3449

 eigenvalue-minimisations  :  3792
 total energy-change (2. order) : 0.1969178E-03  (-0.9369275E-04)
 number of electron      71.9999995 magnetization 
 augmentation part       30.9419426 magnetization 

 Free energy of the ion-electron system (eV)
  ---------------------------------------------------
  alpha Z        PSCENC =       229.21542276
  Ewald energy   TEWEN  =     -4976.98459255
  -Hartree energ DENC   =     -2940.31892637
  -exchange      EXHF   =       165.55596175
  -V(xc)+E(xc)   XCENC  =        94.07389585
  PAW double counting   =      8275.49186334    -9497.89686491
  entropy T*S    EENTRO =         0.00000000
  eigenvalues    EBANDS =      -651.52584713
  atomic energy  EATOM  =      9262.88096869
  Solvation  Ediel_sol  =         0.00000000
  ---------------------------------------------------
  free energy    TOTEN  =       -39.50811856 eV

  energy without entropy =      -39.50811856  energy(sigma->0) =      -39.50811856
  exchange ACFDT corr.  =         0.00000000  see jH, gK, PRB 81, 115126


--------------------------------------------------------------------------------------------------------




--------------------------------------- Iteration      1(   7)  ---------------------------------------


    POTLOK:  cpu time      0.0334: real time      0.0343
    SETDIJ:  cpu time      0.4208: real time      0.4218
     EDDAV:  cpu time     50.8835: real time     51.0064
 BZINTS: Fermi energy:    3.045928;   72.000000 electrons
         Band energy:-0.651184E+03;  BLOECHL correction:    0.000000
       DOS:  cpu time      0.0122: real time      0.0124
    CHARGE:  cpu time      0.0479: real time      0.0480
    MIXING:  cpu time      0.0001: real time      0.0001
    --------------------------------------------
      LOOP:  cpu time     51.3980: real time     51.5229

 eigenvalue-minimisations  :  4068
 total energy-change (2. order) : 0.1013521E-03  (-0.5794175E-05)
 number of electron      71.9999995 magnetization 
 augmentation part       30.9427890 magnetization 

 Free energy of the ion-electron system (eV)
  ---------------------------------------------------
  alpha Z        PSCENC =       229.21542276
  Ewald energy   TEWEN  =     -4976.98459255
  -Hartree energ DENC   =     -2940.78556552
  -exchange      EXHF   =       165.53960381
  -V(xc)+E(xc)   XCENC  =        94.07855524
  PAW double counting   =      8267.22722365    -9489.49558050
  entropy T*S    EENTRO =         0.00000000
  eigenvalues    EBANDS =      -651.18405279
  atomic energy  EATOM  =      9262.88096869
  Solvation  Ediel_sol  =         0.00000000
  ---------------------------------------------------
  free energy    TOTEN  =       -39.50801721 eV

  energy without entropy =      -39.50801721  energy(sigma->0) =      -39.50801721
  exchange ACFDT corr.  =         0.00000000  see jH, gK, PRB 81, 115126


--------------------------------------------------------------------------------------------------------




--------------------------------------- Iteration      1(   8)  ---------------------------------------


    POTLOK:  cpu time      0.0172: real time      0.0350
    SETDIJ:  cpu time      0.4208: real time      0.4218
     EDDAV:  cpu time     52.4442: real time     52.5678
 BZINTS: Fermi energy:    3.048158;   72.000000 electrons
         Band energy:-0.651001E+03;  BLOECHL correction:    0.000000
       DOS:  cpu time      0.0138: real time      0.0140
    CHARGE:  cpu time      0.0557: real time      0.0558
    MIXING:  cpu time      0.0003: real time      0.0003
    --------------------------------------------
      LOOP:  cpu time     52.9521: real time     53.0947

 eigenvalue-minimisations  :  3600
 total energy-change (2. order) : 0.4679017E-04  (-0.1142431E-05)
 number of electron      71.9999995 magnetization 
 augmentation part       30.9432252 magnetization 

 Free energy of the ion-electron system (eV)
  ---------------------------------------------------
  alpha Z        PSCENC =       229.21542276
  Ewald energy   TEWEN  =     -4976.98459255
  -Hartree energ DENC   =     -2941.06428361
  -exchange      EXHF   =       165.53483315
  -V(xc)+E(xc)   XCENC  =        94.08115398
  PAW double counting   =      8262.72837773    -9484.89932387
  entropy T*S    EENTRO =         0.00000000
  eigenvalues    EBANDS =      -651.00052669
  atomic energy  EATOM  =      9262.88096869
  Solvation  Ediel_sol  =         0.00000000
  ---------------------------------------------------
  free energy    TOTEN  =       -39.50797042 eV

  energy without entropy =      -39.50797042  energy(sigma->0) =      -39.50797042
  exchange ACFDT corr.  =         0.00000000  see jH, gK, PRB 81, 115126


--------------------------------------------------------------------------------------------------------




--------------------------------------- Iteration      1(   9)  ---------------------------------------


    POTLOK:  cpu time      0.0223: real time      0.0373
    SETDIJ:  cpu time      0.4207: real time      0.4217
     EDDAV:  cpu time     50.9062: real time     51.0262
 BZINTS: Fermi energy:    3.049366;   72.000000 electrons
         Band energy:-0.650912E+03;  BLOECHL correction:    0.000000
       DOS:  cpu time      0.0120: real time      0.0121
    CHARGE:  cpu time      0.0467: real time      0.0468
    MIXING:  cpu time      0.0001: real time      0.0001
    --------------------------------------------
      LOOP:  cpu time     51.4080: real time     51.5442

 eigenvalue-minimisations  :  2652
 total energy-change (2. order) : 0.1509698E-04  (-0.4594365E-06)
 number of electron      71.9999995 magnetization 
 augmentation part       30.9435558 magnetization 

 Free energy of the ion-electron system (eV)
  ---------------------------------------------------
  alpha Z        PSCENC =       229.21542276
  Ewald energy   TEWEN  =     -4976.98459255
  -Hartree energ DENC   =     -2941.22100297
  -exchange      EXHF   =       165.53381554
  -V(xc)+E(xc)   XCENC  =        94.08265026
  PAW double counting   =      8260.09292175    -9482.19589662
  entropy T*S    EENTRO =         0.00000000
  eigenvalues    EBANDS =      -650.91224219
  atomic energy  EATOM  =      9262.88096869
  Solvation  Ediel_sol  =         0.00000000
  ---------------------------------------------------
  free energy    TOTEN  =       -39.50795532 eV

  energy without entropy =      -39.50795532  energy(sigma->0) =      -39.50795532
  exchange ACFDT corr.  =         0.00000000  see jH, gK, PRB 81, 115126


--------------------------------------------------------------------------------------------------------




--------------------------------------- Iteration      1(  10)  ---------------------------------------


    POTLOK:  cpu time      0.0181: real time      0.0346
    SETDIJ:  cpu time      0.4235: real time      0.4245
     EDDAV:  cpu time     50.6248: real time     50.7441
 BZINTS: Fermi energy:    3.050012;   72.000000 electrons
         Band energy:-0.650866E+03;  BLOECHL correction:    0.000000
       DOS:  cpu time      0.0140: real time      0.0142
    --------------------------------------------
      LOOP:  cpu time     51.0805: real time     51.2174

 eigenvalue-minimisations  :  2172
 total energy-change (2. order) : 0.4946167E-05  (-0.1808099E-06)
 number of electron      71.9999995 magnetization 
 augmentation part       30.9435558 magnetization 

 Free energy of the ion-electron system (eV)
  ---------------------------------------------------
  alpha Z        PSCENC =       229.21542276
  Ewald energy   TEWEN  =     -4976.98459255
  -Hartree energ DENC   =     -2941.31052597
  -exchange      EXHF   =       165.53375958
  -V(xc)+E(xc)   XCENC  =        94.08361558
  PAW double counting   =      8258.57913682    -9480.63960527
  entropy T*S    EENTRO =         0.00000000
  eigenvalues    EBANDS =      -650.86613002
  atomic energy  EATOM  =      9262.88096869
  Solvation  Ediel_sol  =         0.00000000
  ---------------------------------------------------
  free energy    TOTEN  =       -39.50795038 eV

  energy without entropy =      -39.50795038  energy(sigma->0) =      -39.50795038
  exchange ACFDT corr.  =         0.00000000  see jH, gK, PRB 81, 115126


--------------------------------------------------------------------------------------------------------




 average (electrostatic) potential at core
  the test charge radii are     1.0314  1.0621
  (the norm of the test charge is              1.0000)
       1 -59.8260       2 -59.8260       3 -59.8259       4 -59.8259       5 -47.0341
       6 -47.0342       7 -47.0341       8 -47.0341
 
 
 
 E-fermi :   3.0500     XC(G=0):  -7.7805     alpha+bet : -9.2550

 Fermi energy:         3.0500124495

 k-point     1 :       0.0000    0.0000    0.0000
  band No.  band energies     occupation 
      1     -14.3467      2.00000
      2     -14.3467      2.00000
      3     -14.3467      2.00000
      4     -14.2779      2.00000
      5     -14.2779      2.00000
      6     -14.2779      2.00000
      7     -14.2411      2.00000
      8     -14.2411      2.00000
      9     -14.2411      2.00000
     10     -14.2411      2.00000
     11     -14.2411      2.00000
     12     -14.2411      2.00000
     13     -14.2258      2.00000
     14     -14.2258      2.00000
     15     -14.2258      2.00000
     16     -14.2082      2.00000
     17     -14.2082      2.00000
     18     -14.1990      2.00000
     19     -14.1990      2.00000
     20     -14.1990      2.00000
     21     -10.5586      2.00000
     22      -8.0469      2.00000
     23      -8.0469      2.00000
     24      -8.0469      2.00000
     25      -4.1000      2.00000
     26      -4.1000      2.00000
     27      -4.1000      2.00000
     28       0.3197      2.00000
     29       0.3197      2.00000
     30       0.3197      2.00000
     31       0.3197      2.00000
     32       0.3197      2.00000
     33       0.3197      2.00000
     34       3.0437      2.00000
     35       3.0437      2.00000
     36       3.0437      2.00000
     37       4.0333      0.00000
     38       5.2142      0.00000
     39       5.2142      0.00000
     40       5.2142      0.00000
     41       5.3999      0.00000
     42       5.3999      0.00000
     43       5.3999      0.00000
     44       7.5743      0.00000
     45       7.5743      0.00000
     46       7.5743      0.00000
     47      11.4450      0.00000
     48      14.0102      0.00000
     49      14.0102      0.00000
     50      14.1468      0.00000
     51      14.1468      0.00000
     52      14.1468      0.00000
     53      14.1468      0.00000
     54      14.1468      0.00000
     55      14.1468      0.00000
     56      14.8069      0.00000
     57      14.8069      0.00000
     58      14.8069      0.00000
     59      15.4813      0.00000
     60      15.4813      0.00000
     61      15.4813      0.00000
     62      17.1666      0.00000
     63      17.1666      0.00000
     64      17.1666      0.00000
     65      17.2216      0.00000
     66      17.2216      0.00000
     67      17.2216      0.00000
     68      17.2216      0.00000
     69      17.2216      0.00000
     70      17.2216      0.00000
     71      17.3524      0.00000
     72      17.3524      0.00000
     73      17.3524      0.00000
     74      18.2338      0.00000
     75      19.4255      0.00000
     76      19.4255      0.00000
     77      19.4255      0.00000
     78      23.0403      0.00000
     79      23.0403      0.00000
     80      23.0403      0.00000
     81      23.5683      0.00000
     82      23.5683      0.00000
     83      23.5683      0.00000
     84      23.5683      0.00000
     85      23.5683      0.00000
     86      23.5683      0.00000
     87      23.7459      0.00000
     88      23.7459      0.00000
     89      23.7459      0.00000
     90      23.7523      0.00000
     91      23.7524      0.00000
     92      23.7524      0.00000
     93      24.1022      0.00000
     94      24.1022      0.00000
     95      24.1022      0.00000
     96      24.1022      0.00000
     97      24.1022      0.00000
     98      24.1022      0.00000
     99      25.5002      0.00000
    100      25.5002      0.00000
    101      25.5002      0.00000
    102      29.1713      0.00000
    103      29.1713      0.00000
    104      29.1713      0.00000
    105      30.1120      0.00000
    106      30.1120      0.00000
    107      30.1120      0.00000
    108      30.9016      0.00000
    109      30.9016      0.00000
    110      30.9016      0.00000
    111      31.3938      0.00000
    112      31.3938      0.00000
    113      31.8140      0.00000
    114      31.8140      0.00000
    115      31.8140      0.00000
    116      33.1924      0.00000
    117      33.1924      0.00000
    118      33.1924      0.00000
    119      33.1924      0.00000
    120      33.1924      0.00000
    121      33.1924      0.00000
    122      34.5731      0.00000
    123      34.5731      0.00000
    124      34.5731      0.00000
    125      36.2720      0.00000
    126      36.2720      0.00000
    127      36.2720      0.00000
    128      36.2720      0.00000
    129      36.2720      0.00000
    130      36.2720      0.00000
    131      37.4711      0.00000
    132      37.4711      0.00000
    133      37.4711      0.00000
    134      37.5974      0.00000
    135      37.5974      0.00000
    136      37.5974      0.00000
    137      38.1797      0.00000
    138      38.1797      0.00000
    139      38.1798      0.00000
    140      38.1975      0.00000
    141      38.8570      0.00000
    142      38.8572      0.00000
    143      38.8574      0.00000
    144      39.6488      0.00000

 k-point     2 :       0.2500   -0.0000    0.0000
  band No.  band energies     occupation 
      1     -14.3416      2.00000
      2     -14.3416      2.00000
      3     -14.3377      2.00000
      4     -14.2893      2.00000
      5     -14.2726      2.00000
      6     -14.2726      2.00000
      7     -14.2475      2.00000
      8     -14.2475      2.00000
      9     -14.2467      2.00000
     10     -14.2467      2.00000
     11     -14.2423      2.00000
     12     -14.2423      2.00000
     13     -14.2228      2.00000
     14     -14.2218      2.00000
     15     -14.2218      2.00000
     16     -14.2103      2.00000
     17     -14.2069      2.00000
     18     -14.2015      2.00000
     19     -14.2014      2.00000
     20     -14.2004      2.00000
     21     -10.3145      2.00000
     22      -8.6505      2.00000
     23      -8.0222      2.00000
     24      -8.0222      2.00000
     25      -4.0051      2.00000
     26      -4.0051      2.00000
     27      -3.1688      2.00000
     28      -0.1432      2.00000
     29      -0.1432      2.00000
     30      -0.0252      2.00000
     31      -0.0252      2.00000
     32       0.5884      2.00000
     33       0.5884      2.00000
     34       1.0377      2.00000
     35       2.4048      2.00000
     36       2.4048      2.00000
     37       5.2099      0.00000
     38       5.9055      0.00000
     39       6.0521      0.00000
     40       6.3092      0.00000
     41       6.3092      0.00000
     42       6.5137      0.00000
     43       6.5137      0.00000
     44       6.8857      0.00000
     45       8.5221      0.00000
     46       8.5221      0.00000
     47      11.8972      0.00000
     48      12.0395      0.00000
     49      12.0395      0.00000
     50      12.2376      0.00000
     51      12.2376      0.00000
     52      12.6606      0.00000
     53      12.6606      0.00000
     54      12.7644      0.00000
     55      13.1835      0.00000
     56      14.2702      0.00000
     57      14.9118      0.00000
     58      14.9118      0.00000
     59      16.0128      0.00000
     60      16.0128      0.00000
     61      16.1826      0.00000
     62      16.1826      0.00000
     63      16.2740      0.00000
     64      16.7042      0.00000
     65      17.2199      0.00000
     66      17.2199      0.00000
     67      17.4264      0.00000
     68      17.4264      0.00000
     69      17.4668      0.00000
     70      19.0116      0.00000
     71      19.0116      0.00000
     72      20.2824      0.00000
     73      20.2824      0.00000
     74      20.4245      0.00000
     75      20.4245      0.00000
     76      20.4365      0.00000
     77      20.5221      0.00000
     78      21.0329      0.00000
     79      21.2941      0.00000
     80      21.2941      0.00000
     81      21.4921      0.00000
     82      21.4921      0.00000
     83      22.0189      0.00000
     84      22.2000      0.00000
     85      22.2000      0.00000
     86      22.4254      0.00000
     87      22.4254      0.00000
     88      22.9212      0.00000
     89      22.9212      0.00000
     90      25.7924      0.00000
     91      25.7924      0.00000
     92      25.8845      0.00000
     93      25.8845      0.00000
     94      26.3743      0.00000
     95      26.3743      0.00000
     96      26.5749      0.00000
     97      26.5749      0.00000
     98      26.9730      0.00000
     99      27.1276      0.00000
    100      27.1276      0.00000
    101      27.2447      0.00000
    102      27.2879      0.00000
    103      28.1393      0.00000
    104      28.1393      0.00000
    105      28.6443      0.00000
    106      28.6443      0.00000
    107      28.7169      0.00000
    108      30.0771      0.00000
    109      30.2121      0.00000
    110      30.2121      0.00000
    111      30.4934      0.00000
    112      30.4934      0.00000
    113      30.8792      0.00000
    114      31.8595      0.00000
    115      32.3908      0.00000
    116      32.3908      0.00000
    117      32.8283      0.00000
    118      32.8283      0.00000
    119      32.8600      0.00000
    120      33.5039      0.00000
    121      33.5039      0.00000
    122      34.4386      0.00000
    123      34.4386      0.00000
    124      34.7297      0.00000
    125      34.7297      0.00000
    126      35.4170      0.00000
    127      35.6706      0.00000
    128      36.2472      0.00000
    129      36.2472      0.00000
    130      36.5281      0.00000
    131      36.5281      0.00000
    132      36.9180      0.00000
    133      36.9180      0.00000
    134      37.3896      0.00000
    135      37.3896      0.00000
    136      37.5349      0.00000
    137      37.7655      0.00000
    138      38.1565      0.00000
    139      38.1566      0.00000
    140      38.6192      0.00000
    141      38.6194      0.00000
    142      38.8863      0.00000
    143      39.0259      0.00000
    144      39.3156      0.00000

 k-point     3 :       0.5000   -0.0000    0.0000
  band No.  band energies     occupation 
      1     -14.3356      2.00000
      2     -14.3356      2.00000
      3     -14.3147      2.00000
      4     -14.3147      2.00000
      5     -14.2598      2.00000
      6     -14.2598      2.00000
      7     -14.2598      2.00000
      8     -14.2598      2.00000
      9     -14.2547      2.00000
     10     -14.2547      2.00000
     11     -14.2432      2.00000
     12     -14.2432      2.00000
     13     -14.2168      2.00000
     14     -14.2168      2.00000
     15     -14.2161      2.00000
     16     -14.2161      2.00000
     17     -14.2052      2.00000
     18     -14.2052      2.00000
     19     -14.2036      2.00000
     20     -14.2036      2.00000
     21      -9.6213      2.00000
     22      -9.6213      2.00000
     23      -7.9970      2.00000
     24      -7.9970      2.00000
     25      -3.8979      2.00000
     26      -3.8979      2.00000
     27      -1.2315      2.00000
     28      -1.2315      2.00000
     29      -0.5468      2.00000
     30      -0.5468      2.00000
     31      -0.3121      2.00000
     32      -0.3121      2.00000
     33       1.3502      2.00000
     34       1.3502      2.00000
     35       1.3503      2.00000
     36       1.3503      2.00000
     37       5.7491      0.00000
     38       5.7491      0.00000
     39       6.9867      0.00000
     40       6.9867      0.00000
     41       8.4189      0.00000
     42       8.4189      0.00000
     43       8.4767      0.00000
     44       8.4767      0.00000
     45       9.2743      0.00000
     46       9.2743      0.00000
     47       9.8827      0.00000
     48       9.8827      0.00000
     49      10.4762      0.00000
     50      10.4762      0.00000
     51      10.4762      0.00000
     52      10.4762      0.00000
     53      11.2259      0.00000
     54      11.2259      0.00000
     55      14.9836      0.00000
     56      14.9836      0.00000
     57      15.0424      0.00000
     58      15.0424      0.00000
     59      15.3029      0.00000
     60      15.3029      0.00000
     61      16.1432      0.00000
     62      16.1432      0.00000
     63      17.1899      0.00000
     64      17.1899      0.00000
     65      17.6073      0.00000
     66      17.6073      0.00000
     67      17.6151      0.00000
     68      17.6151      0.00000
     69      17.6151      0.00000
     70      17.6151      0.00000
     71      18.1318      0.00000
     72      18.1318      0.00000
     73      20.5394      0.00000
     74      20.5394      0.00000
     75      21.6323      0.00000
     76      21.6323      0.00000
     77      21.6361      0.00000
     78      21.6361      0.00000
     79      22.1644      0.00000
     80      22.1644      0.00000
     81      22.1644      0.00000
     82      22.1644      0.00000
     83      22.1702      0.00000
     84      22.1702      0.00000
     85      23.4029      0.00000
     86      23.4029      0.00000
     87      23.8483      0.00000
     88      23.8483      0.00000
     89      23.8812      0.00000
     90      23.8812      0.00000
     91      24.8721      0.00000
     92      24.8721      0.00000
     93      25.0311      0.00000
     94      25.0311      0.00000
     95      25.1193      0.00000
     96      25.1193      0.00000
     97      26.9935      0.00000
     98      26.9935      0.00000
     99      28.2100      0.00000
    100      28.2100      0.00000
    101      28.6691      0.00000
    102      28.6691      0.00000
    103      30.0162      0.00000
    104      30.0162      0.00000
    105      30.0775      0.00000
    106      30.0775      0.00000
    107      30.3749      0.00000
    108      30.3749      0.00000
    109      30.5611      0.00000
    110      30.5611      0.00000
    111      30.9627      0.00000
    112      30.9627      0.00000
    113      31.1209      0.00000
    114      31.1209      0.00000
    115      31.2579      0.00000
    116      31.2579      0.00000
    117      31.2579      0.00000
    118      31.2579      0.00000
    119      31.7235      0.00000
    120      31.7235      0.00000
    121      32.0338      0.00000
    122      32.0338      0.00000
    123      32.9850      0.00000
    124      32.9850      0.00000
    125      32.9850      0.00000
    126      32.9850      0.00000
    127      34.5788      0.00000
    128      34.5788      0.00000
    129      35.0581      0.00000
    130      35.0581      0.00000
    131      37.3842      0.00000
    132      37.3842      0.00000
    133      38.4058      0.00000
    134      38.4067      0.00000
    135      38.5322      0.00000
    136      38.5325      0.00000
    137      38.5720      0.00000
    138      38.5726      0.00000
    139      38.8723      0.00000
    140      38.8723      0.00000
    141      38.8882      0.00000
    142      38.8967      0.00000
    143      38.9069      0.00000
    144      39.0049      0.00000

 k-point     4 :       0.2500    0.2500    0.0000
  band No.  band energies     occupation 
      1     -14.3371      2.00000
      2     -14.3339      2.00000
      3     -14.3339      2.00000
      4     -14.2945      2.00000
      5     -14.2722      2.00000
      6     -14.2694      2.00000
      7     -14.2521      2.00000
      8     -14.2520      2.00000
      9     -14.2502      2.00000
     10     -14.2477      2.00000
     11     -14.2477      2.00000
     12     -14.2462      2.00000
     13     -14.2193      2.00000
     14     -14.2193      2.00000
     15     -14.2184      2.00000
     16     -14.2099      2.00000
     17     -14.2073      2.00000
     18     -14.2034      2.00000
     19     -14.2022      2.00000
     20     -14.2022      2.00000
     21     -10.0814      2.00000
     22      -8.5408      2.00000
     23      -8.5408      2.00000
     24      -8.0889      2.00000
     25      -3.8985      2.00000
     26      -3.3048      2.00000
     27      -3.3048      2.00000
     28      -0.8668      2.00000
     29      -0.1932      2.00000
     30      -0.0256      2.00000
     31      -0.0256      2.00000
     32       0.5522      2.00000
     33       0.5522      2.00000
     34       0.7547      2.00000
     35       1.7171      2.00000
     36       2.7635      2.00000
     37       5.7149      0.00000
     38       5.9286      0.00000
     39       6.3932      0.00000
     40       6.3932      0.00000
     41       6.9662      0.00000
     42       6.9662      0.00000
     43       7.8238      0.00000
     44       8.0714      0.00000
     45       8.4353      0.00000
     46       9.2137      0.00000
     47      10.1119      0.00000
     48      10.1119      0.00000
     49      11.8490      0.00000
     50      12.0006      0.00000
     51      12.1337      0.00000
     52      12.4665      0.00000
     53      12.5800      0.00000
     54      12.5800      0.00000
     55      13.1198      0.00000
     56      13.6324      0.00000
     57      13.8774      0.00000
     58      13.8774      0.00000
     59      14.4233      0.00000
     60      15.7137      0.00000
     61      15.7138      0.00000
     62      15.8810      0.00000
     63      16.7192      0.00000
     64      17.2336      0.00000
     65      17.2337      0.00000
     66      18.0904      0.00000
     67      18.0904      0.00000
     68      18.1492      0.00000
     69      18.8726      0.00000
     70      18.8726      0.00000
     71      19.3118      0.00000
     72      19.4638      0.00000
     73      19.5304      0.00000
     74      19.5304      0.00000
     75      20.2110      0.00000
     76      20.2979      0.00000
     77      20.8675      0.00000
     78      20.8675      0.00000
     79      21.5327      0.00000
     80      21.6940      0.00000
     81      21.7475      0.00000
     82      22.3375      0.00000
     83      22.3375      0.00000
     84      22.5194      0.00000
     85      23.4795      0.00000
     86      23.4795      0.00000
     87      24.2330      0.00000
     88      24.2330      0.00000
     89      24.4870      0.00000
     90      24.9724      0.00000
     91      25.4228      0.00000
     92      25.5434      0.00000
     93      25.7777      0.00000
     94      25.7777      0.00000
     95      25.8041      0.00000
     96      26.3218      0.00000
     97      26.4123      0.00000
     98      26.7544      0.00000
     99      26.7544      0.00000
    100      26.8898      0.00000
    101      27.7994      0.00000
    102      27.9068      0.00000
    103      27.9068      0.00000
    104      28.1930      0.00000
    105      28.8919      0.00000
    106      29.6712      0.00000
    107      29.6712      0.00000
    108      29.8616      0.00000
    109      30.3612      0.00000
    110      30.3612      0.00000
    111      30.7392      0.00000
    112      31.0053      0.00000
    113      31.0053      0.00000
    114      31.5491      0.00000
    115      31.5491      0.00000
    116      31.7554      0.00000
    117      32.0463      0.00000
    118      33.0398      0.00000
    119      33.0398      0.00000
    120      33.0803      0.00000
    121      33.9746      0.00000
    122      34.1193      0.00000
    123      34.6103      0.00000
    124      34.6312      0.00000
    125      34.6312      0.00000
    126      34.7565      0.00000
    127      35.2384      0.00000
    128      35.4799      0.00000
    129      35.4799      0.00000
    130      35.8194      0.00000
    131      36.4665      0.00000
    132      36.4665      0.00000
    133      36.5935      0.00000
    134      36.7443      0.00000
    135      36.9249      0.00000
    136      37.0419      0.00000
    137      37.0419      0.00000
    138      37.5216      0.00000
    139      37.8928      0.00000
    140      38.1487      0.00000
    141      38.4368      0.00000
    142      38.4377      0.00000
    143      38.5131      0.00000
    144      38.6753      0.00000

 k-point     5 :       0.5000    0.2500    0.0000
  band No.  band energies     occupation 
      1     -14.3307      2.00000
      2     -14.3307      2.00000
      3     -14.3144      2.00000
      4     -14.3143      2.00000
      5     -14.2622      2.00000
      6     -14.2622      2.00000
      7     -14.2601      2.00000
      8     -14.2601      2.00000
      9     -14.2567      2.00000
     10     -14.2567      2.00000
     11     -14.2484      2.00000
     12     -14.2484      2.00000
     13     -14.2142      2.00000
     14     -14.2141      2.00000
     15     -14.2138      2.00000
     16     -14.2138      2.00000
     17     -14.2061      2.00000
     18     -14.2061      2.00000
     19     -14.2047      2.00000
     20     -14.2047      2.00000
     21      -9.4271      2.00000
     22      -9.4271      2.00000
     23      -8.2937      2.00000
     24      -8.2937      2.00000
     25      -3.6218      2.00000
     26      -3.6218      2.00000
     27      -1.8556      2.00000
     28      -1.8556      2.00000
     29      -0.8117      2.00000
     30      -0.8117      2.00000
     31       0.6538      2.00000
     32       0.6538      2.00000
     33       0.7252      2.00000
     34       0.7252      2.00000
     35       1.7519      2.00000
     36       1.7519      2.00000
     37       6.7711      0.00000
     38       6.7711      0.00000
     39       7.0929      0.00000
     40       7.0929      0.00000
     41       7.2716      0.00000
     42       7.2716      0.00000
     43       9.0475      0.00000
     44       9.0475      0.00000
     45       9.1896      0.00000
     46       9.1896      0.00000
     47       9.2629      0.00000
     48       9.2629      0.00000
     49      10.1837      0.00000
     50      10.1837      0.00000
     51      11.6211      0.00000
     52      11.6211      0.00000
     53      12.3124      0.00000
     54      12.3124      0.00000
     55      12.5714      0.00000
     56      12.5714      0.00000
     57      14.3155      0.00000
     58      14.3155      0.00000
     59      14.8342      0.00000
     60      14.8342      0.00000
     61      15.3211      0.00000
     62      15.3211      0.00000
     63      16.8792      0.00000
     64      16.8792      0.00000
     65      17.9574      0.00000
     66      17.9574      0.00000
     67      18.3610      0.00000
     68      18.3610      0.00000
     69      18.5050      0.00000
     70      18.5050      0.00000
     71      19.3039      0.00000
     72      19.3039      0.00000
     73      19.4628      0.00000
     74      19.4628      0.00000
     75      20.7767      0.00000
     76      20.7767      0.00000
     77      21.1827      0.00000
     78      21.1827      0.00000
     79      21.6992      0.00000
     80      21.6992      0.00000
     81      22.4095      0.00000
     82      22.4095      0.00000
     83      23.9252      0.00000
     84      23.9252      0.00000
     85      24.2088      0.00000
     86      24.2088      0.00000
     87      24.4178      0.00000
     88      24.4178      0.00000
     89      24.8861      0.00000
     90      24.8861      0.00000
     91      25.4199      0.00000
     92      25.4199      0.00000
     93      25.7520      0.00000
     94      25.7520      0.00000
     95      25.9499      0.00000
     96      25.9499      0.00000
     97      26.8081      0.00000
     98      26.8081      0.00000
     99      27.1574      0.00000
    100      27.1574      0.00000
    101      27.6236      0.00000
    102      27.6236      0.00000
    103      28.7578      0.00000
    104      28.7578      0.00000
    105      29.2726      0.00000
    106      29.2726      0.00000
    107      29.6360      0.00000
    108      29.6360      0.00000
    109      29.8262      0.00000
    110      29.8262      0.00000
    111      30.6128      0.00000
    112      30.6128      0.00000
    113      31.6375      0.00000
    114      31.6375      0.00000
    115      31.7191      0.00000
    116      31.7191      0.00000
    117      32.2393      0.00000
    118      32.2393      0.00000
    119      32.3750      0.00000
[...]
   59.130863    0.901010    0.901010    0.901010    0.000000   -0.000000   -0.000000
   59.157963    0.901135    0.901135    0.901135    0.000000   -0.000000   -0.000000
   59.185062    0.901258    0.901258    0.901258    0.000000   -0.000000   -0.000000
   59.212161    0.901382    0.901382    0.901382    0.000000   -0.000000   -0.000000
   59.239261    0.901505    0.901505    0.901505    0.000000   -0.000000   -0.000000
   59.266360    0.901628    0.901628    0.901628    0.000000   -0.000000   -0.000000
   59.293460    0.901750    0.901750    0.901750    0.000000   -0.000000   -0.000000
   59.320559    0.901872    0.901872    0.901872    0.000000   -0.000000   -0.000000
   59.347658    0.901993    0.901993    0.901993    0.000000   -0.000000   -0.000000
   59.374758    0.902115    0.902115    0.902115    0.000000   -0.000000   -0.000000
   59.401857    0.902236    0.902236    0.902236    0.000000   -0.000000   -0.000000
   59.428957    0.902356    0.902356    0.902356    0.000000   -0.000000   -0.000000
   59.456056    0.902476    0.902476    0.902476    0.000000   -0.000000   -0.000000
   59.483155    0.902596    0.902596    0.902596    0.000000   -0.000000   -0.000000
   59.510255    0.902716    0.902716    0.902716    0.000000   -0.000000   -0.000000
   59.537354    0.902835    0.902835    0.902835    0.000000   -0.000000   -0.000000
   59.564454    0.902954    0.902954    0.902954    0.000000   -0.000000   -0.000000
   59.591553    0.903072    0.903072    0.903072    0.000000   -0.000000   -0.000000
   59.618652    0.903191    0.903191    0.903191    0.000000   -0.000000   -0.000000
   59.645752    0.903309    0.903309    0.903309    0.000000   -0.000000   -0.000000
   59.672851    0.903426    0.903426    0.903426    0.000000   -0.000000   -0.000000
   59.699950    0.903543    0.903543    0.903543    0.000000   -0.000000   -0.000000
   59.727050    0.903660    0.903660    0.903660    0.000000   -0.000000   -0.000000
   59.754149    0.903777    0.903777    0.903777    0.000000   -0.000000   -0.000000
   59.781249    0.903893    0.903893    0.903893    0.000000   -0.000000   -0.000000
   59.808348    0.904009    0.904009    0.904009    0.000000   -0.000000   -0.000000
   59.835447    0.904125    0.904125    0.904125    0.000000   -0.000000   -0.000000
   59.862547    0.904240    0.904240    0.904240    0.000000   -0.000000   -0.000000
   59.889646    0.904355    0.904355    0.904355    0.000000   -0.000000   -0.000000
   59.916746    0.904470    0.904470    0.904470    0.000000   -0.000000   -0.000000
   59.943845    0.904584    0.904584    0.904584    0.000000   -0.000000   -0.000000
   59.970944    0.904698    0.904698    0.904698    0.000000   -0.000000   -0.000000
   59.998044    0.904812    0.904812    0.904812    0.000000   -0.000000   -0.000000
   60.025143    0.904925    0.904925    0.904925    0.000000   -0.000000   -0.000000
   60.052242    0.905039    0.905039    0.905039    0.000000   -0.000000   -0.000000
   60.079342    0.905151    0.905151    0.905151    0.000000   -0.000000   -0.000000
   60.106441    0.905264    0.905264    0.905264    0.000000   -0.000000   -0.000000
   60.133541    0.905376    0.905376    0.905376    0.000000   -0.000000   -0.000000
   60.160640    0.905488    0.905488    0.905488    0.000000   -0.000000   -0.000000
   60.187739    0.905600    0.905600    0.905600    0.000000   -0.000000   -0.000000
   60.214839    0.905711    0.905711    0.905711    0.000000   -0.000000   -0.000000
   60.241938    0.905822    0.905822    0.905822    0.000000   -0.000000   -0.000000
   60.269038    0.905933    0.905933    0.905933    0.000000   -0.000000   -0.000000
   60.296137    0.906044    0.906044    0.906044    0.000000   -0.000000   -0.000000
   60.323236    0.906154    0.906154    0.906154    0.000000   -0.000000   -0.000000
   60.350336    0.906264    0.906264    0.906264    0.000000   -0.000000   -0.000000
   60.377435    0.906374    0.906374    0.906374    0.000000   -0.000000   -0.000000
   60.404535    0.906483    0.906483    0.906483    0.000000   -0.000000   -0.000000
   60.431634    0.906592    0.906592    0.906592    0.000000   -0.000000   -0.000000
   60.458733    0.906701    0.906701    0.906701    0.000000   -0.000000   -0.000000
   60.485833    0.906810    0.906810    0.906810    0.000000   -0.000000   -0.000000
   60.512932    0.906918    0.906918    0.906918    0.000000   -0.000000   -0.000000
   60.540031    0.907026    0.907026    0.907026    0.000000   -0.000000   -0.000000
   60.567131    0.907134    0.907134    0.907134    0.000000   -0.000000   -0.000000
   60.594230    0.907242    0.907242    0.907242    0.000000   -0.000000   -0.000000
   60.621330    0.907349    0.907349    0.907349    0.000000   -0.000000   -0.000000
   60.648429    0.907456    0.907456    0.907456    0.000000   -0.000000   -0.000000
   60.675528    0.907563    0.907563    0.907563    0.000000   -0.000000   -0.000000
   60.702628    0.907669    0.907669    0.907669    0.000000   -0.000000   -0.000000
   60.729727    0.907775    0.907775    0.907775    0.000000   -0.000000   -0.000000
   60.756827    0.907881    0.907881    0.907881    0.000000   -0.000000   -0.000000
   60.783926    0.907987    0.907987    0.907987    0.000000   -0.000000   -0.000000
   60.811025    0.908092    0.908092    0.908092    0.000000   -0.000000   -0.000000
   60.838125    0.908197    0.908197    0.908197    0.000000   -0.000000   -0.000000
   60.865224    0.908302    0.908302    0.908302    0.000000   -0.000000   -0.000000
   60.892323    0.908407    0.908407    0.908407    0.000000   -0.000000   -0.000000
   60.919423    0.908511    0.908511    0.908511    0.000000   -0.000000   -0.000000
   60.946522    0.908616    0.908616    0.908616    0.000000   -0.000000   -0.000000
   60.973622    0.908720    0.908720    0.908720    0.000000   -0.000000   -0.000000
   61.000721    0.908823    0.908823    0.908823    0.000000   -0.000000   -0.000000
   61.027820    0.908927    0.908927    0.908927    0.000000   -0.000000   -0.000000
   61.054920    0.909030    0.909030    0.909030    0.000000   -0.000000   -0.000000
   61.082019    0.909133    0.909133    0.909133    0.000000   -0.000000   -0.000000
   61.109119    0.909236    0.909236    0.909236    0.000000   -0.000000   -0.000000
   61.136218    0.909338    0.909338    0.909338    0.000000   -0.000000   -0.000000
   61.163317    0.909440    0.909440    0.909440    0.000000   -0.000000   -0.000000
   61.190417    0.909542    0.909542    0.909542    0.000000   -0.000000   -0.000000
   61.217516    0.909644    0.909644    0.909644    0.000000   -0.000000   -0.000000
   61.244616    0.909745    0.909745    0.909745    0.000000   -0.000000   -0.000000
   61.271715    0.909847    0.909847    0.909847    0.000000   -0.000000   -0.000000
   61.298814    0.909948    0.909948    0.909948    0.000000   -0.000000   -0.000000
   61.325914    0.910049    0.910049    0.910049    0.000000   -0.000000   -0.000000
   61.353013    0.910149    0.910149    0.910149    0.000000   -0.000000   -0.000000
   61.380112    0.910249    0.910249    0.910249    0.000000   -0.000000   -0.000000
   61.407212    0.910350    0.910350    0.910350    0.000000   -0.000000   -0.000000
   61.434311    0.910449    0.910449    0.910449    0.000000   -0.000000   -0.000000
   61.461411    0.910549    0.910549    0.910549    0.000000   -0.000000   -0.000000
   61.488510    0.910649    0.910649    0.910649    0.000000   -0.000000   -0.000000
   61.515609    0.910748    0.910748    0.910748    0.000000   -0.000000   -0.000000
   61.542709    0.910847    0.910847    0.910847    0.000000   -0.000000   -0.000000
   61.569808    0.910946    0.910946    0.910946    0.000000   -0.000000   -0.000000
   61.596908    0.911044    0.911044    0.911044    0.000000   -0.000000   -0.000000
   61.624007    0.911142    0.911142    0.911142    0.000000   -0.000000   -0.000000
   61.651106    0.911240    0.911240    0.911240    0.000000   -0.000000   -0.000000
   61.678206    0.911338    0.911338    0.911338    0.000000   -0.000000   -0.000000
   61.705305    0.911436    0.911436    0.911436    0.000000   -0.000000   -0.000000
   61.732404    0.911533    0.911533    0.911533    0.000000   -0.000000   -0.000000
   61.759504    0.911631    0.911631    0.911631    0.000000   -0.000000   -0.000000
   61.786603    0.911728    0.911728    0.911728    0.000000   -0.000000   -0.000000
   61.813703    0.911825    0.911825    0.911825    0.000000   -0.000000   -0.000000
   61.840802    0.911921    0.911921    0.911921    0.000000   -0.000000   -0.000000
   61.867901    0.912017    0.912017    0.912017    0.000000   -0.000000   -0.000000
   61.895001    0.912114    0.912114    0.912114    0.000000   -0.000000   -0.000000
   61.922100    0.912210    0.912210    0.912210    0.000000   -0.000000   -0.000000
   61.949200    0.912305    0.912305    0.912305    0.000000   -0.000000   -0.000000
   61.976299    0.912401    0.912401    0.912401    0.000000   -0.000000   -0.000000
   62.003398    0.912496    0.912496    0.912496    0.000000   -0.000000   -0.000000
   62.030498    0.912591    0.912591    0.912591    0.000000   -0.000000   -0.000000
   62.057597    0.912686    0.912686    0.912686    0.000000   -0.000000   -0.000000
   62.084697    0.912781    0.912781    0.912781    0.000000   -0.000000   -0.000000
   62.111796    0.912875    0.912875    0.912875    0.000000   -0.000000   -0.000000
   62.138895    0.912970    0.912970    0.912970    0.000000   -0.000000   -0.000000
   62.165995    0.913064    0.913064    0.913064    0.000000   -0.000000   -0.000000
   62.193094    0.913158    0.913158    0.913158    0.000000   -0.000000   -0.000000
   62.220193    0.913252    0.913252    0.913252    0.000000   -0.000000   -0.000000
   62.247293    0.913345    0.913345    0.913345    0.000000   -0.000000   -0.000000
   62.274392    0.913438    0.913438    0.913438    0.000000   -0.000000   -0.000000
   62.301492    0.913531    0.913531    0.913531    0.000000   -0.000000   -0.000000
   62.328591    0.913624    0.913624    0.913624    0.000000   -0.000000   -0.000000
   62.355690    0.913717    0.913717    0.913717    0.000000   -0.000000   -0.000000
   62.382790    0.913810    0.913810    0.913810    0.000000   -0.000000   -0.000000
   62.409889    0.913902    0.913902    0.913902    0.000000   -0.000000   -0.000000
   62.436989    0.913994    0.913994    0.913994    0.000000   -0.000000   -0.000000
   62.464088    0.914086    0.914086    0.914086    0.000000   -0.000000   -0.000000
   62.491187    0.914178    0.914178    0.914178    0.000000   -0.000000   -0.000000
   62.518287    0.914269    0.914269    0.914269    0.000000   -0.000000   -0.000000
   62.545386    0.914361    0.914361    0.914361    0.000000   -0.000000   -0.000000
   62.572486    0.914452    0.914452    0.914452    0.000000   -0.000000   -0.000000
   62.599585    0.914543    0.914543    0.914543    0.000000   -0.000000   -0.000000
   62.626684    0.914634    0.914634    0.914634    0.000000   -0.000000   -0.000000
   62.653784    0.914724    0.914724    0.914724    0.000000   -0.000000   -0.000000
   62.680883    0.914815    0.914815    0.914815    0.000000   -0.000000   -0.000000
   62.707982    0.914905    0.914905    0.914905    0.000000   -0.000000   -0.000000
   62.735082    0.914995    0.914995    0.914995    0.000000   -0.000000   -0.000000
   62.762181    0.915085    0.915085    0.915085    0.000000   -0.000000   -0.000000
   62.789281    0.915175    0.915175    0.915175    0.000000   -0.000000   -0.000000
   62.816380    0.915264    0.915264    0.915264    0.000000   -0.000000   -0.000000
   62.843479    0.915353    0.915353    0.915353    0.000000   -0.000000   -0.000000
   62.870579    0.915443    0.915443    0.915443    0.000000   -0.000000   -0.000000
   62.897678    0.915532    0.915532    0.915532    0.000000   -0.000000   -0.000000
   62.924778    0.915620    0.915620    0.915620    0.000000   -0.000000   -0.000000
   62.951877    0.915709    0.915709    0.915709    0.000000   -0.000000   -0.000000
   62.978976    0.915797    0.915797    0.915797    0.000000   -0.000000   -0.000000
   63.006076    0.915886    0.915886    0.915886    0.000000   -0.000000   -0.000000
   63.033175    0.915974    0.915974    0.915974    0.000000   -0.000000   -0.000000
   63.060274    0.916062    0.916062    0.916062    0.000000   -0.000000   -0.000000
   63.087374    0.916149    0.916149    0.916149    0.000000   -0.000000   -0.000000
   63.114473    0.916237    0.916237    0.916237    0.000000   -0.000000   -0.000000
   63.141573    0.916324    0.916324    0.916324    0.000000   -0.000000   -0.000000
   63.168672    0.916411    0.916411    0.916411    0.000000   -0.000000   -0.000000
   63.195771    0.916499    0.916499    0.916499    0.000000   -0.000000   -0.000000
   63.222871    0.916585    0.916585    0.916585    0.000000   -0.000000   -0.000000
   63.249970    0.916672    0.916672    0.916672    0.000000   -0.000000   -0.000000
   63.277070    0.916759    0.916759    0.916759    0.000000   -0.000000   -0.000000
   63.304169    0.916845    0.916845    0.916845    0.000000   -0.000000   -0.000000
   63.331268    0.916931    0.916931    0.916931    0.000000   -0.000000   -0.000000
   63.358368    0.917017    0.917017    0.917017    0.000000   -0.000000   -0.000000
   63.385467    0.917103    0.917103    0.917103    0.000000   -0.000000   -0.000000
   63.412567    0.917189    0.917189    0.917189    0.000000   -0.000000   -0.000000
   63.439666    0.917274    0.917274    0.917274    0.000000   -0.000000   -0.000000
   63.466765    0.917359    0.917359    0.917359    0.000000   -0.000000   -0.000000
   63.493865    0.917445    0.917445    0.917445    0.000000   -0.000000   -0.000000
   63.520964    0.917530    0.917530    0.917530    0.000000   -0.000000   -0.000000
   63.548063    0.917614    0.917614    0.917614    0.000000   -0.000000   -0.000000
   63.575163    0.917699    0.917699    0.917699    0.000000   -0.000000   -0.000000
   63.602262    0.917784    0.917784    0.917784    0.000000   -0.000000   -0.000000
   63.629362    0.917868    0.917868    0.917868    0.000000   -0.000000   -0.000000
   63.656461    0.917952    0.917952    0.917952    0.000000   -0.000000   -0.000000
   63.683560    0.918036    0.918036    0.918036    0.000000   -0.000000   -0.000000
   63.710660    0.918120    0.918120    0.918120    0.000000   -0.000000   -0.000000
   63.737759    0.918204    0.918204    0.918204    0.000000   -0.000000   -0.000000
   63.764859    0.918287    0.918287    0.918287    0.000000   -0.000000   -0.000000
   63.791958    0.918371    0.918371    0.918371    0.000000   -0.000000   -0.000000
   63.819057    0.918454    0.918454    0.918454    0.000000   -0.000000   -0.000000
   63.846157    0.918537    0.918537    0.918537    0.000000   -0.000000   -0.000000
   63.873256    0.918620    0.918620    0.918620    0.000000   -0.000000   -0.000000
   63.900355    0.918703    0.918703    0.918703    0.000000   -0.000000   -0.000000
   63.927455    0.918785    0.918785    0.918785    0.000000   -0.000000   -0.000000
   63.954554    0.918868    0.918868    0.918868    0.000000   -0.000000   -0.000000
   63.981654    0.918950    0.918950    0.918950    0.000000   -0.000000   -0.000000
   64.008753    0.919032    0.919032    0.919032    0.000000   -0.000000   -0.000000
   64.035852    0.919114    0.919114    0.919114    0.000000   -0.000000   -0.000000
   64.062952    0.919196    0.919196    0.919196    0.000000   -0.000000   -0.000000
   64.090051    0.919278    0.919278    0.919278    0.000000   -0.000000   -0.000000
   64.117151    0.919359    0.919359    0.919359    0.000000   -0.000000   -0.000000
   64.144250    0.919441    0.919441    0.919441    0.000000   -0.000000   -0.000000
   64.171349    0.919522    0.919522    0.919522    0.000000   -0.000000   -0.000000
   64.198449    0.919603    0.919603    0.919603    0.000000   -0.000000   -0.000000
   64.225548    0.919684    0.919684    0.919684    0.000000   -0.000000   -0.000000
   64.252648    0.919765    0.919765    0.919765    0.000000   -0.000000   -0.000000
   64.279747    0.919845    0.919845    0.919845    0.000000   -0.000000   -0.000000
   64.306846    0.919926    0.919926    0.919926    0.000000   -0.000000   -0.000000
   64.333946    0.920006    0.920006    0.920006    0.000000   -0.000000   -0.000000
   64.361045    0.920086    0.920086    0.920086    0.000000   -0.000000   -0.000000
   64.388144    0.920166    0.920166    0.920166    0.000000   -0.000000   -0.000000
   64.415244    0.920246    0.920246    0.920246    0.000000   -0.000000   -0.000000
   64.442343    0.920326    0.920326    0.920326    0.000000   -0.000000   -0.000000
   64.469443    0.920405    0.920405    0.920405    0.000000   -0.000000   -0.000000
   64.496542    0.920485    0.920485    0.920485    0.000000   -0.000000   -0.000000
   64.523641    0.920564    0.920564    0.920564    0.000000   -0.000000   -0.000000
   64.550741    0.920643    0.920643    0.920643    0.000000   -0.000000   -0.000000
   64.577840    0.920722    0.920722    0.920722    0.000000   -0.000000   -0.000000
   64.604940    0.920801    0.920801    0.920801    0.000000   -0.000000   -0.000000
   64.632039    0.920880    0.920880    0.920880    0.000000   -0.000000   -0.000000
   64.659138    0.920958    0.920958    0.920958    0.000000   -0.000000   -0.000000
   64.686238    0.921037    0.921037    0.921037    0.000000   -0.000000   -0.000000
   64.713337    0.921115    0.921115    0.921115    0.000000   -0.000000   -0.000000
   64.740436    0.921193    0.921193    0.921193    0.000000   -0.000000   -0.000000
   64.767536    0.921271    0.921271    0.921271    0.000000   -0.000000   -0.000000
   64.794635    0.921349    0.921349    0.921349    0.000000   -0.000000   -0.000000
 
 The outermost node in the dielectric function lies at epsilon=  18.1


--------------------------------------------------------------------------------------------------------


    OPTICS:  cpu time     13.0406: real time     13.0753
    4ORBIT:  cpu time      0.0000: real time      0.0000



 total charge

# of ion       s       p       d       tot
------------------------------------------
    1        0.839   0.750  10.001  11.590
    2        0.839   0.750  10.001  11.590
    3        0.839   0.750  10.001  11.590
    4        0.839   0.750  10.001  11.590
    5        1.222   1.608   0.028   2.859
    6        1.222   1.608   0.028   2.859
    7        1.222   1.608   0.028   2.859
    8        1.222   1.608   0.028   2.859
--------------------------------------------------
tot          8.247   9.431  40.118  57.796
 
 BZINTS: Fermi energy:    3.050012;   72.000000 electrons
         Band energy:-0.650866E+03;  BLOECHL correction:    0.000000

 total amount of memory used by VASP MPI-rank0    43661. kBytes
=======================================================================

   base      :      30000. kBytes
   nonl-proj :       2454. kBytes
   fftplans  :        882. kBytes
   grid      :       1072. kBytes
   one-center:         15. kBytes
   HF        :         64. kBytes
   nonlr-proj:       1025. kBytes
   wavefun   :       1612. kBytes
   fock_wrk  :       6537. kBytes
 
  
  
 General timing and accounting informations for this job:
 ========================================================
  
                  Total CPU time used (sec):      702.546
                            User time (sec):      700.135
                          System time (sec):        2.410
                         Elapsed time (sec):      710.934
  
                   Maximum memory used (kb):      320476.
                   Average memory used (kb):          N/A
  
                          Minor page faults:        97895
                          Major page faults:            0
                 Voluntary context switches:         8555
