<?xml version="1.0" encoding="ISO-8859-1"?>
<modeling>
 <generator>
  <i name="program" type="string">vasp </i>
  <i name="version" type="string">6.4.2  </i>
  <i name="subversion" type="string">20Jul23 (build Mar 15 2024 16:31:38) complex                          parallel </i>
  <i name="platform" type="string">LinuxIFC </i>
  <i name="date" type="string">2025 03 19 </i>
  <i name="time" type="string">14:26:38 </i>
 </generator>
 <incar>
  <i type="string" name="PREC">Accurate</i>
  <i type="string" name="ALGO">Normal</i>
  <i type="int" name="ISPIN">     2</i>
  <i type="int" name="NELM">   200</i>
  <i name="EDIFF">      0.00001000</i>
  <i type="int" name="NSW">     0</i>
  <i name="ENCUT">    680.00000000</i>
  <i name="ENAUG">   1360.00000000</i>
  <v name="MAGMOM">      0.60000000      0.60000000</v>
  <i type="logical" name="LREAL"> F  </i>
  <i type="int" name="ISMEAR">    -5</i>
  <i name="SIGMA">      0.20000000</i>
  <i type="int" name="LMAXMIX">     4</i>
  <i type="logical" name="LWAVE"> T  </i>
  <i type="logical" name="LCHARG"> T  </i>
  <i type="logical" name="LVTOT"> T  </i>
  <i type="int" name="LORBIT">    11</i>
  <i type="logical" name="LELF"> F  </i>
  <i type="logical" name="LASPH"> T  </i>
  <i type="logical" name="LAECHG"> T  </i>
  <i name="HFSCREEN">      0.20000000</i>
  <i type="logical" name="LHFCALC"> T  </i>
  <i type="string" name="GGA">Pe</i>
  <i type="string" name="PRECFOCK">Fast</i>
  <i type="logical" name="LDAU"> F  </i>
  <i type="logical" name="LMIXTAU"> T  </i>
 </incar>
 <primitive_cell>
  <structure name="primitive_cell" >
   <crystal>
    <varray name="basis" >
     <v>       3.61541800       0.00000000       2.08736254 </v>
     <v>       1.20513900       3.40864864       2.08736254 </v>
     <v>       0.00000000       0.00000000       4.17472507 </v>
    </varray>
    <i name="volume">     51.44801605 </i>
    <varray name="rec_basis" >
     <v>       0.27659319      -0.09779044       0.00000000 </v>
     <v>       0.00000000       0.29337139       0.00000000 </v>
     <v>      -0.13829660      -0.09779048       0.23953673 </v>
    </varray>
   </crystal>
   <varray name="positions" >
    <v>       0.00000000       0.00000000       0.00000000 </v>
    <v>       0.25000000       0.25000000       0.25000000 </v>
   </varray>
  </structure>
  <varray name="primitive_index" >
   <v type="int" >        1 </v>
   <v type="int" >        2 </v>
  </varray>
 </primitive_cell>
 <kpoints>
  <generation param="Gamma">
   <v type="int" name="divisions">       6        6        6 </v>
   <v name="usershift">      0.00000000       0.00000000       0.00000000 </v>
   <v name="genvec1">      0.16666667      -0.00000000       0.00000000 </v>
   <v name="genvec2">      0.00000000       0.16666667       0.00000000 </v>
   <v name="genvec3">      0.00000000      -0.00000000       0.16666667 </v>
   <v name="shift">      0.00000000       0.00000000       0.00000000 </v>
  </generation>
  <varray name="kpointlist" >
   <v>       0.00000000       0.00000000       0.00000000 </v>
   <v>       0.16666667      -0.00000000       0.00000000 </v>
   <v>       0.33333333       0.00000000       0.00000000 </v>
   <v>       0.50000000      -0.00000000       0.00000000 </v>
   <v>       0.16666667       0.16666667       0.00000000 </v>
   <v>       0.33333333       0.16666667       0.00000000 </v>
   <v>       0.50000000       0.16666667       0.00000000 </v>
   <v>      -0.33333333       0.16666667       0.00000000 </v>
   <v>      -0.16666667       0.16666667       0.00000000 </v>
   <v>       0.33333333       0.33333333       0.00000000 </v>
   <v>       0.50000000       0.33333333       0.00000000 </v>
   <v>      -0.33333333       0.33333333       0.00000000 </v>
   <v>       0.50000000       0.50000000       0.00000000 </v>
   <v>       0.50000000       0.33333333       0.16666667 </v>
   <v>      -0.33333333       0.33333333       0.16666667 </v>
   <v>      -0.33333333       0.50000000       0.16666667 </v>
  </varray>
  <varray name="weights" >
   <v>       0.00462963 </v>
   <v>       0.03703704 </v>
   <v>       0.03703704 </v>
   <v>       0.01851852 </v>
   <v>       0.02777778 </v>
   <v>       0.11111111 </v>
   <v>       0.11111111 </v>
   <v>       0.11111111 </v>
   <v>       0.05555556 </v>
   <v>       0.02777778 </v>
   <v>       0.11111111 </v>
   <v>       0.05555556 </v>
   <v>       0.01388889 </v>
   <v>       0.11111111 </v>
   <v>       0.11111111 </v>
   <v>       0.05555556 </v>
  </varray>
  <varray name="tetrahedronlist"  type="int" >
   <v type="int" >       48        2        3        6        9 </v>
   <v type="int" >       48        6        8        9       14 </v>
   <v type="int" >       24        8        8        9       14 </v>
   <v type="int" >       48        3        6        8        9 </v>
   <v type="int" >       48        8       12       14       15 </v>
   <v type="int" >       48        7        8       12       15 </v>
   <v type="int" >       24        8        8       12       14 </v>
   <v type="int" >       48        7       11       14       15 </v>
   <v type="int" >       48        6        7       11       14 </v>
   <v type="int" >       48        7       11       12       15 </v>
   <v type="int" >       24        6        6       10       14 </v>
   <v type="int" >       24        5        6        6       10 </v>
   <v type="int" >       48        6       10       11       14 </v>
   <v type="int" >       24        5        6        6        9 </v>
   <v type="int" >       48        2        5        6        9 </v>
   <v type="int" >       48        6        7        8       14 </v>
   <v type="int" >       48        3        6        7        8 </v>
   <v type="int" >       48       11       14       15       16 </v>
   <v type="int" >       24       14       15       15       16 </v>
   <v type="int" >       24       12       14       15       15 </v>
   <v type="int" >       48        7        8       14       15 </v>
   <v type="int" >       24       15       15       16       16 </v>
   <v type="int" >       24       12       15       15       16 </v>
   <v type="int" >       48       11       12       15       16 </v>
   <v type="int" >       24       11       11       14       16 </v>
   <v type="int" >       24       10       11       11       14 </v>
   <v type="int" >       24        6        6        9       14 </v>
   <v type="int" >       24       11       11       12       16 </v>
   <v type="int" >       48        7        7        8       15 </v>
   <v type="int" >       24        2        2        5        9 </v>
   <v type="int" >       48        3        4        7        8 </v>
   <v type="int" >       48        4        7        7        8 </v>
   <v type="int" >       48       11       11       13       16 </v>
   <v type="int" >       24       10       11       11       13 </v>
   <v type="int" >       24        1        2        2        5 </v>
  </varray>
  <i name="volumeweight">      0.00077160 </i>
 </kpoints>
 <parameters>
  <separator name="general" >
   <i type="string" name="SYSTEM">unknown system</i>
   <i type="logical" name="LCOMPAT"> F  </i>
  </separator>
  <separator name="electronic" >
   <i type="string" name="PREC">accura</i>
   <i name="ENMAX">    680.00000000</i>
   <i name="ENAUG">   1360.00000000</i>
   <i name="EDIFF">      0.00001000</i>
   <i type="int" name="IALGO">    38</i>
   <i type="int" name="IWAVPR">    10</i>
   <i type="int" name="NBANDS">    24</i>
   <i type="int" name="NBANDSLOW">    -1</i>
   <i type="int" name="NBANDSHIGH">    -1</i>
   <i name="NELECT">     18.00000000</i>
   <i type="int" name="TURBO">     0</i>
   <i type="int" name="IRESTART">     0</i>
   <i type="int" name="NREBOOT">     0</i>
   <i type="int" name="NMIN">     0</i>
   <i name="EREF">      0.00000000</i>
   <separator name="electronic smearing" >
    <i type="int" name="ISMEAR">    -5</i>
    <i name="SIGMA">      0.20000000</i>
    <i name="KSPACING">      0.50000000</i>
    <i type="logical" name="KGAMMA"> T  </i>
    <i type="logical" name="KBLOWUP"> T  </i>
   </separator>
   <separator name="electronic projectors" >
    <i type="logical" name="LREAL"> F  </i>
    <v name="ROPT">      0.00000000      0.00000000</v>
    <i type="int" name="LMAXPAW">  -100</i>
    <i type="int" name="LMAXMIX">     4</i>
    <i type="logical" name="NLSPLINE"> F  </i>
   </separator>
   <separator name="electronic startup" >
    <i type="int" name="ISTART">     0</i>
    <i type="int" name="ICHARG">     2</i>
    <i type="int" name="INIWAV">     1</i>
   </separator>
   <separator name="electronic spin" >
    <i type="int" name="ISPIN">     2</i>
    <i type="logical" name="LNONCOLLINEAR"> F  </i>
    <v name="MAGMOM">      0.60000000      0.60000000</v>
    <i name="NUPDOWN">     -1.00000000</i>
    <i type="logical" name="LSORBIT"> F  </i>
    <v name="SAXIS">      0.00000000      0.00000000      1.00000000</v>
    <i type="logical" name="LSPIRAL"> F  </i>
    <v name="QSPIRAL">      0.00000000      0.00000000      0.00000000</v>
    <i type="logical" name="LZEROZ"> F  </i>
   </separator>
   <separator name="electronic exchange-correlation" >
    <i type="logical" name="LASPH"> T  </i>
    <i type="logical" name="LMETAGGA"> F  </i>
   </separator>
   <separator name="electronic convergence" >
    <i type="int" name="NELM">   200</i>
    <i type="int" name="NELMDL">    -5</i>
    <i type="int" name="NELMIN">     2</i>
    <i name="ENINI">    680.00000000</i>
    <separator name="electronic convergence detail" >
     <i type="logical" name="LDIAG"> T  </i>
     <i type="logical" name="LSUBROT"> F  </i>
     <i name="WEIMIN">      0.00000000</i>
     <i name="EBREAK">      0.00000010</i>
     <i name="DEPER">      0.30000000</i>
     <i type="int" name="NRMM">     4</i>
     <i name="TIME">      0.40000000</i>
    </separator>
   </separator>
   <separator name="electronic mixer" >
    <i name="AMIX">      0.40000000</i>
    <i name="BMIX">      1.00000000</i>
    <i name="AMIN">      0.10000000</i>
    <i name="AMIX_MAG">      1.60000000</i>
    <i name="BMIX_MAG">      1.00000000</i>
    <separator name="electronic mixer details" >
     <i type="int" name="IMIX">     1</i>
     <i type="logical" name="MIXFIRST"> F  </i>
     <i type="int" name="MAXMIX">   -45</i>
     <i name="WC">    100.00000000</i>
     <i type="int" name="INIMIX">     1</i>
     <i type="int" name="MIXPRE">     1</i>
     <i type="int" name="MREMOVE">     5</i>
    </separator>
   </separator>
   <separator name="electronic dipolcorrection" >
    <i type="logical" name="LDIPOL"> F  </i>
    <i type="logical" name="LMONO"> F  </i>
    <i type="int" name="IDIPOL">     0</i>
    <i name="EPSILON">      1.00000000</i>
    <v name="DIPOL">   -100.00000000   -100.00000000   -100.00000000</v>
    <i name="EFIELD">      0.00000000</i>
   </separator>
  </separator>
  <separator name="grids" >
   <i type="int" name="NGX">    36</i>
   <i type="int" name="NGY">    36</i>
   <i type="int" name="NGZ">    36</i>
   <i type="int" name="NGXF">    72</i>
   <i type="int" name="NGYF">    72</i>
   <i type="int" name="NGZF">    72</i>
   <i type="logical" name="ADDGRID"> F  </i>
  </separator>
  <separator name="ionic" >
   <i type="int" name="NSW">     0</i>
   <i type="int" name="IBRION">    -1</i>
   <i type="int" name="MDALGO">     0</i>
   <i type="int" name="ISIF">     0</i>
   <i name="PSTRESS">      0.00000000</i>
   <i name="EDIFFG">      0.00010000</i>
   <i type="int" name="NFREE">     0</i>
   <i name="POTIM">      0.50000000</i>
   <i name="SMASS">     -3.00000000</i>
   <i name="SCALEE">      1.00000000</i>
  </separator>
  <separator name="ionic md" >
   <i name="TEBEG">      0.00010000</i>
   <i name="TEEND">      0.00010000</i>
   <i type="int" name="NBLOCK">     1</i>
   <i type="int" name="KBLOCK">     1</i>
   <i type="int" name="NPACO">   256</i>
   <i name="APACO">     10.00000000</i>
  </separator>
  <separator name="symmetry" >
   <i type="int" name="ISYM">     3</i>
   <i name="SYMPREC">      0.00001000</i>
  </separator>
  <separator name="dos" >
   <i type="int" name="LORBIT">    11</i>
   <v name="RWIGS">     -1.00000000     -1.00000000</v>
   <i type="int" name="NEDOS">   301</i>
   <i name="EMIN">     10.00000000</i>
   <i name="EMAX">    -10.00000000</i>
   <i name="EFERMI">      0.00000000</i>
  </separator>
  <separator name="writing" >
   <i type="int" name="NWRITE">     2</i>
   <i type="logical" name="LWAVE"> T  </i>
   <i type="logical" name="LDOWNSAMPLE"> F  </i>
   <i type="logical" name="LCHARG"> T  </i>
   <i type="logical" name="LPARD"> F  </i>
   <i type="logical" name="LVTOT"> T  </i>
   <i type="logical" name="LVHAR"> F  </i>
   <i type="logical" name="LELF"> F  </i>
   <i type="logical" name="LOPTICS"> F  </i>
   <v name="STM">      0.00000000      0.00000000      0.00000000      0.00000000      0.00000000      0.00000000      0.00000000</v>
  </separator>
  <separator name="performance" >
   <i type="int" name="NPAR">    12</i>
   <i type="int" name="NSIM">     4</i>
   <i type="int" name="NBLK">    -1</i>
   <i type="logical" name="LPLANE"> T  </i>
   <i type="logical" name="LSCALAPACK"> T  </i>
   <i type="logical" name="LSCAAWARE"> T  </i>
   <i type="logical" name="LSCALU"> F  </i>
   <i type="logical" name="LASYNC"> F  </i>
   <i type="logical" name="LORBITALREAL"> F  </i>
  </separator>
  <separator name="miscellaneous" >
   <i type="int" name="IDIOT">     3</i>
   <i type="int" name="PHON_NSTRUCT">    -1</i>
   <i type="logical" name="LMUSIC"> F  </i>
   <v name="POMASS">    114.82000000     30.97400000</v>
   <v name="DARWINR">      0.00000000      0.00000000</v>
   <v name="DARWINV">      1.00000000      1.00000000</v>
   <i type="logical" name="LCORR"> T  </i>
  </separator>
  <i type="logical" name="GGA_COMPAT"> T  </i>
  <i type="logical" name="LBERRY"> F  </i>
  <i type="int" name="ICORELEVEL">     0</i>
  <i type="logical" name="LDAU"> F  </i>
  <i type="int" name="I_CONSTRAINED_M">     0</i>
  <separator name="electronic exchange-correlation" >
   <i type="string" name="GGA">PE</i>
   <i type="int" name="VOSKOWN">     0</i>
   <i type="logical" name="LHFCALC"> T  </i>
   <i type="string" name="PRECFOCK">fast</i>
   <i type="logical" name="LSYMGRAD"> F  </i>
   <i type="logical" name="LHFONE"> F  </i>
   <i type="logical" name="LRHFCALC"> F  </i>
   <i type="logical" name="LTHOMAS"> F  </i>
   <i type="logical" name="LMODELHF"> F  </i>
   <i type="logical" name="LFOCKACE"> T  </i>
   <i name="ENCUT4O">     -1.00000000</i>
   <i type="int" name="EXXOEP">     0</i>
   <i type="int" name="FOURORBIT">     0</i>
   <i name="AEXX">      0.25000000</i>
   <i name="HFALPHA">     -1.00000000</i>
   <i name="MCALPHA">      0.00000000</i>
   <i name="ALDAX">      0.75000000</i>
   <i name="AGGAX">      0.75000000</i>
   <i name="ALDAC">      1.00000000</i>
   <i name="AGGAC">      1.00000000</i>
   <i type="int" name="NKREDX">     1</i>
   <i type="int" name="NKREDY">     1</i>
   <i type="int" name="NKREDZ">     1</i>
   <i type="logical" name="SHIFTRED"> F  </i>
   <i type="logical" name="ODDONLY"> F  </i>
   <i type="logical" name="EVENONLY"> F  </i>
   <i type="int" name="LMAXFOCK">     4</i>
   <i type="int" name="NMAXFOCKAE">     1</i>
   <i type="logical" name="LFOCKAEDFT"> F  </i>
   <i name="HFSCREEN">      0.20000000</i>
   <i name="HFSCREENC">      0.20000000</i>
   <i type="int" name="NBANDSGWLOW">     1</i>
  </separator>
  <separator name="vdW DFT" >
   <i type="logical" name="LUSE_VDW"> F  </i>
   <i type="int" name="IVDW_NL">     1</i>
   <i type="logical" name="LSPIN_VDW"> F  </i>
   <i name="Zab_VDW">     -0.84910000</i>
   <i name="PARAM1">      0.12340000</i>
   <i name="PARAM2">      1.00000000</i>
   <i name="PARAM3">      0.00000000</i>
  </separator>
  <separator name="model GW" >
   <i type="int" name="MODEL_GW">     0</i>
   <i name="MODEL_EPS0">     15.43440481</i>
   <i name="MODEL_ALPHA">      1.00000000</i>
  </separator>
  <separator name="linear response parameters" >
   <i type="logical" name="LEPSILON"> F  </i>
   <i type="logical" name="LRPA"> F  </i>
   <i type="logical" name="LNABLA"> F  </i>
   <i type="logical" name="LVEL"> F  </i>
   <i name="CSHIFT">      0.10000000</i>
   <i name="OMEGAMAX">     -1.00000000</i>
   <i name="DEG_THRESHOLD">      0.00200000</i>
   <i name="RTIME">     -0.10000000</i>
   <i name="WPLASMAI">      0.00000000</i>
   <v name="DFIELD">      0.00000000      0.00000000      0.00000000</v>
   <v name="WPLASMA">      0.00000000      0.00000000      0.00000000      0.00000000      0.00000000      0.00000000      0.00000000      0.00000000      0.00000000</v>
  </separator>
  <separator name="orbital magnetization" >
   <i type="logical" name="NUCIND"> F  </i>
   <v name="MAGPOS">      0.00000000      0.00000000      0.00000000</v>
   <i type="logical" name="LNICSALL"> T  </i>
   <i type="logical" name="ORBITALMAG"> F  </i>
   <i type="logical" name="LMAGBLOCH"> F  </i>
   <i type="logical" name="LCHIMAG"> F  </i>
   <i type="logical" name="LGAUGE"> T  </i>
   <i type="int" name="MAGATOM">     0</i>
   <v name="MAGDIPOL">      0.00000000      0.00000000      0.00000000</v>
   <v name="AVECCONST">      0.00000000      0.00000000      0.00000000</v>
  </separator>
  <separator name="response functions" >
   <i type="logical" name="LALL_IN_ONE"> F  </i>
   <i type="int" name="IALL_IN_ONE">    -1</i>
   <i type="int" name="NBANDS_WAVE">    -1</i>
   <i type="logical" name="LFINITE_TEMPERATURE"> F  </i>
   <i type="logical" name="LADDER"> F  </i>
   <i type="logical" name="LRPAFORCE"> F  </i>
   <i type="logical" name="LFXC"> F  </i>
   <i type="logical" name="LHARTREE"> T  </i>
   <i type="int" name="IBSE">     0</i>
   <v type="int" name="KPOINT">    -1     0     0     0</v>
   <i type="logical" name="LTCTC"> F  </i>
   <i type="logical" name="LTCTE"> F  </i>
   <i type="logical" name="LTETE"> F  </i>
   <i type="logical" name="LTRIPLET"> F  </i>
   <i type="logical" name="LFXCEPS"> F  </i>
   <i type="logical" name="LFXHEG"> F  </i>
   <i type="int" name="NATURALO">     2</i>
   <i type="logical" name="LHOLEGF"> F  </i>
   <i type="logical" name="L2ORDER"> F  </i>
   <i type="logical" name="LDMP1"> F  </i>
   <i type="logical" name="LMP2LT"> F  </i>
   <i type="logical" name="LSMP2LT"> F  </i>
   <i type="logical" name="LGWLF"> F  </i>
   <i name="ENCUTGW">     -1.60000002</i>
   <i name="ENCUTGWSOFT">     -1.60000002</i>
   <i name="ENCUTLF">     -1.00000000</i>
   <i type="logical" name="LESF_SPLINES"> F  </i>
   <i type="int" name="LMAXMP2">    -1</i>
   <i name="SCISSOR">      0.00000000</i>
   <i type="int" name="NOMEGA">     0</i>
   <i type="int" name="NOMEGAR">     0</i>
   <i type="int" name="NBANDSGW">    -1</i>
   <i type="int" name="NBANDSO">    -1</i>
   <i type="int" name="NBANDSV">    -1</i>
   <i type="int" name="NELMGW">     1</i>
   <i type="int" name="NELMHF">     1</i>
   <i type="int" name="DIM">     3</i>
   <i type="int" name="IESPILON">     4</i>
   <i type="int" name="ANTIRES">     0</i>
   <i name="OMEGAMAX">    -30.00000000</i>
   <i name="OMEGAMIN">    -30.00000000</i>
   <i name="OMEGATL">   -200.00000000</i>
   <i type="int" name="OMEGAGRID">     0</i>
   <i name="CSHIFT">     -0.10000000</i>
   <i type="logical" name="LSELFENERGY"> F  </i>
   <i type="logical" name="LSPECTRAL"> F  </i>
   <i type="logical" name="LSPECTRALGW"> F  </i>
   <i type="logical" name="LSINGLES"> F  </i>
   <i type="logical" name="LFERMIGW"> F  </i>
   <i type="logical" name="ODDONLYGW"> F  </i>
   <i type="logical" name="EVENONLYGW"> F  </i>
   <i type="int" name="NKREDLFX">     1</i>
   <i type="int" name="NKREDLFY">     1</i>
   <i type="int" name="NKREDLFZ">     1</i>
   <i type="int" name="MAXMEM">  2800</i>
   <i type="int" name="TELESCOPE">     0</i>
   <i type="int" name="NTAUPAR">    -1</i>
   <i type="int" name="NOMEGAPAR">    -1</i>
   <i name="DAMP_NEWTON">      0.80000001</i>
   <i name="LAMBDA">      1.00000000</i>
  </separator>
  <separator name="External order field" >
   <i name="OFIELD_KAPPA">      0.00000000</i>
   <v name="OFIELD_K">      0.00000000      0.00000000      0.00000000</v>
   <i name="OFIELD_Q6_NEAR">      0.00000000</i>
   <i name="OFIELD_Q6_FAR">      0.00000000</i>
   <i name="OFIELD_A">      0.00000000</i>
  </separator>
  <separator name="optional k-points parameters" >
   <i type="int" name="KPOINTS_OPT_MODE">     1</i>
   <i type="logical" name="LKPOINTS_OPT"> F  </i>
  </separator>
 </parameters>
 <atominfo>
  <atoms>       2 </atoms>
  <types>       2 </types>
  <array name="atoms" >
   <dimension dim="1">ion</dimension>
   <field type="string">element</field>
   <field type="int">atomtype</field>
   <set>
    <rc><c>In</c><c>   1</c></rc>
    <rc><c>P </c><c>   2</c></rc>
   </set>
  </array>
  <array name="atomtypes" >
   <dimension dim="1">type</dimension>
   <field type="int">atomspertype</field>
   <field type="string">element</field>
   <field>mass</field>
   <field>valence</field>
   <field type="string">pseudopotential</field>
   <set>
    <rc><c>   1</c><c>In</c><c>    114.82000000</c><c>     13.00000000</c><c>  PAW_PBE In_d 06Sep2000                </c></rc>
    <rc><c>   1</c><c>P </c><c>     30.97400000</c><c>      5.00000000</c><c>  PAW_PBE P 06Sep2000                   </c></rc>
   </set>
  </array>
 </atominfo>
 <structure name="initialpos" >
  <crystal>
   <varray name="basis" >
    <v>       3.61541800       0.00000000       2.08736254 </v>
    <v>       1.20513900       3.40864864       2.08736254 </v>
    <v>       0.00000000       0.00000000       4.17472507 </v>
   </varray>
   <i name="volume">     51.44801605 </i>
   <varray name="rec_basis" >
    <v>       0.27659319      -0.09779044       0.00000000 </v>
    <v>       0.00000000       0.29337139       0.00000000 </v>
    <v>      -0.13829660      -0.09779048       0.23953673 </v>
   </varray>
  </crystal>
  <varray name="positions" >
   <v>       0.00000000       0.00000000       0.00000000 </v>
   <v>       0.25000000       0.25000000       0.25000000 </v>
  </varray>
 </structure>
 <calculation>
  <scstep>
   <time name="dav">    0.27    0.27</time>
   <time name="total">    0.71    0.72</time>
   <energy>
    <i name="alphaZ">     31.71721604 </i>
    <i name="ewald">  -1211.83925518 </i>
    <i name="hartreedc">   -558.38470678 </i>
    <i name="XCdc">     45.06902050 </i>
    <i name="pawpsdc">   1520.64510051 </i>
    <i name="pawaedc">  -2615.50197305 </i>
    <i name="eentropy">      0.00000000 </i>
    <i name="bandstr">     -1.69841570 </i>
    <i name="atom">   1750.64560241 </i>
    <i name="e_fr_energy">  -1039.34741125 </i>
    <i name="e_wo_entrp">  -1039.34741125 </i>
    <i name="e_0_energy">  -1039.34741125 </i>
   </energy>
  </scstep>
  <scstep>
   <time name="dav">    0.26    0.27</time>
   <time name="total">    0.26    0.27</time>
   <energy>
    <i name="e_fr_energy">  -1157.62646251 </i>
    <i name="e_wo_entrp">  -1157.62646251 </i>
    <i name="e_0_energy">  -1157.62646251 </i>
   </energy>
  </scstep>
  <scstep>
   <time name="dav">    0.25    0.26</time>
   <time name="total">    0.25    0.26</time>
   <energy>
    <i name="e_fr_energy">  -1167.36452176 </i>
    <i name="e_wo_entrp">  -1167.36452176 </i>
    <i name="e_0_energy">  -1167.36452176 </i>
   </energy>
  </scstep>
  <scstep>
   <time name="dav">    0.23    0.25</time>
   <time name="total">    0.24    0.25</time>
   <energy>
    <i name="e_fr_energy">  -1167.55823179 </i>
    <i name="e_wo_entrp">  -1167.55823179 </i>
    <i name="e_0_energy">  -1167.55823179 </i>
   </energy>
  </scstep>
  <scstep>
   <time name="dav">   15.30   15.34</time>
   <time name="total">   16.31   16.37</time>
   <energy>
    <i name="e_fr_energy">    -10.38113744 </i>
    <i name="e_wo_entrp">    -10.38113744 </i>
    <i name="e_0_energy">    -10.38113744 </i>
   </energy>
  </scstep>
  <scstep>
   <time name="dav">   14.88   14.91</time>
   <time name="total">   15.88   15.93</time>
   <energy>
    <i name="e_fr_energy">     -9.98317735 </i>
    <i name="e_wo_entrp">     -9.98317735 </i>
    <i name="e_0_energy">     -9.98317735 </i>
   </energy>
  </scstep>
  <scstep>
   <time name="dav">   15.38   15.42</time>
   <time name="total">   16.40   16.45</time>
   <energy>
    <i name="e_fr_energy">     -9.99854593 </i>
    <i name="e_wo_entrp">     -9.99854593 </i>
    <i name="e_0_energy">     -9.99854593 </i>
   </energy>
  </scstep>
  <scstep>
   <time name="dav">   15.42   15.45</time>
   <time name="total">   16.41   16.47</time>
   <energy>
    <i name="e_fr_energy">    -10.01293556 </i>
    <i name="e_wo_entrp">    -10.01293556 </i>
    <i name="e_0_energy">    -10.01293556 </i>
   </energy>
  </scstep>
  <scstep>
   <time name="dav">   15.45   15.49</time>
   <time name="total">   16.44   16.50</time>
   <energy>
    <i name="e_fr_energy">    -10.01426908 </i>
    <i name="e_wo_entrp">    -10.01426908 </i>
    <i name="e_0_energy">    -10.01426908 </i>
   </energy>
  </scstep>
  <scstep>
   <time name="dav">   15.35   15.39</time>
   <time name="total">   16.36   16.40</time>
   <energy>
    <i name="e_fr_energy">    -10.01506202 </i>
    <i name="e_wo_entrp">    -10.01506202 </i>
    <i name="e_0_energy">    -10.01506202 </i>
   </energy>
  </scstep>
  <scstep>
   <time name="dav">   15.10   15.13</time>
   <time name="total">   16.09   16.15</time>
   <energy>
    <i name="e_fr_energy">    -10.01559744 </i>
    <i name="e_wo_entrp">    -10.01559744 </i>
    <i name="e_0_energy">    -10.01559744 </i>
   </energy>
  </scstep>
  <scstep>
   <time name="dav">   15.46   15.50</time>
   <time name="total">   16.47   16.52</time>
   <energy>
    <i name="e_fr_energy">    -10.01585105 </i>
    <i name="e_wo_entrp">    -10.01585105 </i>
    <i name="e_0_energy">    -10.01585105 </i>
   </energy>
  </scstep>
  <scstep>
   <time name="dav">   15.06   15.10</time>
   <time name="total">   16.06   16.11</time>
   <energy>
    <i name="e_fr_energy">    -10.01597377 </i>
    <i name="e_wo_entrp">    -10.01597377 </i>
    <i name="e_0_energy">    -10.01597377 </i>
   </energy>
  </scstep>
  <scstep>
   <time name="dav">   15.47   15.51</time>
   <time name="total">   16.47   16.53</time>
   <energy>
    <i name="e_fr_energy">    -10.01603482 </i>
    <i name="e_wo_entrp">    -10.01603482 </i>
    <i name="e_0_energy">    -10.01603482 </i>
   </energy>
  </scstep>
  <scstep>
   <time name="dav">   15.34   15.38</time>
   <time name="total">   16.34   16.40</time>
   <energy>
    <i name="e_fr_energy">    -10.01606496 </i>
    <i name="e_wo_entrp">    -10.01606496 </i>
    <i name="e_0_energy">    -10.01606496 </i>
   </energy>
  </scstep>
  <scstep>
   <time name="dav">   15.24   15.28</time>
   <time name="total">   16.24   16.29</time>
   <energy>
    <i name="e_fr_energy">    -10.01608030 </i>
    <i name="e_wo_entrp">    -10.01608030 </i>
    <i name="e_0_energy">    -10.01608030 </i>
   </energy>
  </scstep>
  <scstep>
   <time name="dav">   15.37   15.41</time>
   <time name="total">   16.36   16.42</time>
   <energy>
    <i name="alphaZ">     31.71721604 </i>
    <i name="ewald">  -1211.83925518 </i>
    <i name="hartreedc">   -557.13004644 </i>
    <i name="XCdc">     34.08535611 </i>
    <i name="pawpsdc">   3676.62085821 </i>
    <i name="pawaedc">  -3656.21376686 </i>
    <i name="eentropy">      0.00000000 </i>
    <i name="bandstr">   -116.29510104 </i>
    <i name="atom">   1750.64560241 </i>
    <i name="e_fr_energy">    -10.01608799 </i>
    <i name="e_wo_entrp">    -10.01608799 </i>
    <i name="e_0_energy">    -10.01608799 </i>
   </energy>
  </scstep>
  <structure>
   <crystal>
    <varray name="basis" >
     <v>       3.61541800       0.00000000       2.08736254 </v>
     <v>       1.20513900       3.40864864       2.08736254 </v>
     <v>       0.00000000       0.00000000       4.17472507 </v>
    </varray>
    <i name="volume">     51.44801605 </i>
    <varray name="rec_basis" >
     <v>       0.27659319      -0.09779044       0.00000000 </v>
     <v>       0.00000000       0.29337139       0.00000000 </v>
     <v>      -0.13829660      -0.09779048       0.23953673 </v>
    </varray>
   </crystal>
   <varray name="positions" >
    <v>       0.00000000       0.00000000       0.00000000 </v>
    <v>       0.25000000       0.25000000       0.25000000 </v>
   </varray>
  </structure>
  <varray name="forces" >
   <v>      -0.00000000       0.00000000       0.00000000 </v>
   <v>       0.00000000      -0.00000000      -0.00000000 </v>
  </varray>
  <energy>
   <i name="e_fr_energy">    -10.01608799 </i>
   <i name="e_wo_entrp">    -10.01608799 </i>
   <i name="e_0_energy">    -10.01608799 </i>
  </energy>
  <time name="totalsc">  223.98  224.78</time>
  <eigenvalues>
   <array>
    <dimension dim="1">band</dimension>
    <dimension dim="2">kpoint</dimension>
    <dimension dim="3">spin</dimension>
    <field>eigene</field>
    <field>occ</field>
    <set>
     <set comment="spin 1">
      <set comment="kpoint 1">
       <r>  -11.3314    1.0000 </r>
       <r>  -11.3314    1.0000 </r>
       <r>  -11.3314    1.0000 </r>
       <r>  -11.1804    1.0000 </r>
       <r>  -11.1804    1.0000 </r>
       <r>   -8.0704    1.0000 </r>
       <r>    4.5230    1.0000 </r>
       <r>    4.5230    1.0000 </r>
       <r>    4.5230    1.0000 </r>
       <r>    5.9028    0.0000 </r>
       <r>    9.4560    0.0000 </r>
       <r>    9.4560    0.0000 </r>
       <r>    9.4560    0.0000 </r>
       <r>   14.0084    0.0000 </r>
       <r>   15.0019    0.0000 </r>
       <r>   15.0019    0.0000 </r>
       <r>   16.6678    0.0000 </r>
       <r>   16.6678    0.0000 </r>
       <r>   16.6678    0.0000 </r>
       <r>   19.1963    0.0000 </r>
       <r>   28.0139    0.0000 </r>
       <r>   28.0139    0.0000 </r>
       <r>   28.0139    0.0000 </r>
       <r>   29.8940    0.0000 </r>
      </set>
      <set comment="kpoint 2">
       <r>  -11.3590    1.0000 </r>
       <r>  -11.3196    1.0000 </r>
       <r>  -11.3196    1.0000 </r>
       <r>  -11.1801    1.0000 </r>
       <r>  -11.1801    1.0000 </r>
       <r>   -7.7415    1.0000 </r>
       <r>    2.2646    1.0000 </r>
       <r>    4.2069    1.0000 </r>
       <r>    4.2069    1.0000 </r>
       <r>    7.0280    0.0000 </r>
       <r>    9.8383    0.0000 </r>
       <r>    9.9186    0.0000 </r>
       <r>    9.9186    0.0000 </r>
       <r>   14.1006    0.0000 </r>
       <r>   14.1006    0.0000 </r>
       <r>   14.9253    0.0000 </r>
       <r>   16.3767    0.0000 </r>
       <r>   18.6658    0.0000 </r>
       <r>   18.6658    0.0000 </r>
       <r>   21.3505    0.0000 </r>
       <r>   24.8440    0.0000 </r>
       <r>   24.9399    0.0000 </r>
       <r>   24.9399    0.0000 </r>
       <r>   29.5468    0.0000 </r>
      </set>
      <set comment="kpoint 3">
       <r>  -11.4114    1.0000 </r>
       <r>  -11.3006    1.0000 </r>
       <r>  -11.3006    1.0000 </r>
       <r>  -11.1747    1.0000 </r>
       <r>  -11.1747    1.0000 </r>
       <r>   -6.8942    1.0000 </r>
       <r>   -0.3504    1.0000 </r>
       <r>    3.7049    1.0000 </r>
       <r>    3.7049    1.0000 </r>
       <r>    6.9013    0.0000 </r>
       <r>   10.2640    0.0000 </r>
       <r>   10.2640    0.0000 </r>
       <r>   11.7156    0.0000 </r>
       <r>   14.3088    0.0000 </r>
       <r>   14.6324    0.0000 </r>
       <r>   14.6324    0.0000 </r>
       <r>   19.4646    0.0000 </r>
       <r>   20.8044    0.0000 </r>
       <r>   20.8044    0.0000 </r>
       <r>   21.3407    0.0000 </r>
       <r>   22.1765    0.0000 </r>
       <r>   22.1765    0.0000 </r>
       <r>   25.3422    0.0000 </r>
       <r>   29.3703    0.0000 </r>
      </set>
      <set comment="kpoint 4">
       <r>  -11.4364    1.0000 </r>
       <r>  -11.2938    1.0000 </r>
       <r>  -11.2938    1.0000 </r>
       <r>  -11.1691    1.0000 </r>
       <r>  -11.1691    1.0000 </r>
       <r>   -6.2718    1.0000 </r>
       <r>   -1.6079    1.0000 </r>
       <r>    3.4947    1.0000 </r>
       <r>    3.4947    1.0000 </r>
       <r>    6.7345    0.0000 </r>
       <r>   10.1896    0.0000 </r>
       <r>   10.1896    0.0000 </r>
       <r>   12.5274    0.0000 </r>
       <r>   15.0021    0.0000 </r>
       <r>   16.3183    0.0000 </r>
       <r>   16.3183    0.0000 </r>
       <r>   18.0308    0.0000 </r>
       <r>   18.2996    0.0000 </r>
       <r>   18.2996    0.0000 </r>
       <r>   23.9507    0.0000 </r>
       <r>   25.2252    0.0000 </r>
       <r>   25.2252    0.0000 </r>
       <r>   26.3281    0.0000 </r>
       <r>   26.7829    0.0000 </r>
      </set>
      <set comment="kpoint 5">
       <r>  -11.3800    1.0000 </r>
       <r>  -11.3076    1.0000 </r>
       <r>  -11.3076    1.0000 </r>
       <r>  -11.1902    1.0000 </r>
       <r>  -11.1727    1.0000 </r>
       <r>   -7.6327    1.0000 </r>
       <r>    2.3110    1.0000 </r>
       <r>    3.6759    1.0000 </r>
       <r>    3.6759    1.0000 </r>
       <r>    7.9081    0.0000 </r>
       <r>    8.4117    0.0000 </r>
       <r>   10.7137    0.0000 </r>
       <r>   10.7137    0.0000 </r>
       <r>   12.6535    0.0000 </r>
       <r>   15.2800    0.0000 </r>
       <r>   16.0139    0.0000 </r>
       <r>   17.6121    0.0000 </r>
       <r>   17.6121    0.0000 </r>
       <r>   17.9241    0.0000 </r>
       <r>   22.5740    0.0000 </r>
       <r>   24.2322    0.0000 </r>
       <r>   24.2322    0.0000 </r>
       <r>   26.0589    0.0000 </r>
       <r>   26.3947    0.0000 </r>
      </set>
      <set comment="kpoint 6">
       <r>  -11.4216    1.0000 </r>
       <r>  -11.2905    1.0000 </r>
       <r>  -11.2858    1.0000 </r>
       <r>  -11.1946    1.0000 </r>
       <r>  -11.1661    1.0000 </r>
       <r>   -6.9481    1.0000 </r>
       <r>    0.3177    1.0000 </r>
       <r>    2.9732    1.0000 </r>
       <r>    3.1445    1.0000 </r>
       <r>    7.9979    0.0000 </r>
       <r>    9.0934    0.0000 </r>
       <r>   10.9047    0.0000 </r>
       <r>   11.4135    0.0000 </r>
       <r>   13.5943    0.0000 </r>
       <r>   15.5724    0.0000 </r>
       <r>   16.2449    0.0000 </r>
       <r>   18.8234    0.0000 </r>
       <r>   19.8908    0.0000 </r>
       <r>   20.8646    0.0000 </r>
       <r>   20.9421    0.0000 </r>
       <r>   21.4726    0.0000 </r>
       <r>   24.3695    0.0000 </r>
       <r>   25.9267    0.0000 </r>
       <r>   26.2036    0.0000 </r>
      </set>
      <set comment="kpoint 7">
       <r>  -11.4451    1.0000 </r>
       <r>  -11.2857    1.0000 </r>
       <r>  -11.2771    1.0000 </r>
       <r>  -11.1847    1.0000 </r>
       <r>  -11.1659    1.0000 </r>
       <r>   -6.1453    1.0000 </r>
       <r>   -1.3268    1.0000 </r>
       <r>    2.2649    1.0000 </r>
       <r>    3.0552    1.0000 </r>
       <r>    7.8591    0.0000 </r>
       <r>    9.7452    0.0000 </r>
       <r>   11.1531    0.0000 </r>
       <r>   12.0675    0.0000 </r>
       <r>   14.8152    0.0000 </r>
       <r>   16.3757    0.0000 </r>
       <r>   16.5323    0.0000 </r>
       <r>   17.6171    0.0000 </r>
       <r>   18.6134    0.0000 </r>
       <r>   21.3639    0.0000 </r>
       <r>   22.8868    0.0000 </r>
       <r>   23.3632    0.0000 </r>
       <r>   25.0643    0.0000 </r>
       <r>   25.7170    0.0000 </r>
       <r>   26.7342    0.0000 </r>
      </set>
      <set comment="kpoint 8">
       <r>  -11.4338    1.0000 </r>
       <r>  -11.2887    1.0000 </r>
       <r>  -11.2847    1.0000 </r>
       <r>  -11.1783    1.0000 </r>
       <r>  -11.1743    1.0000 </r>
       <r>   -6.3686    1.0000 </r>
       <r>   -0.9156    1.0000 </r>
       <r>    2.0697    1.0000 </r>
       <r>    3.4542    1.0000 </r>
       <r>    8.0108    0.0000 </r>
       <r>    9.9815    0.0000 </r>
       <r>   10.8029    0.0000 </r>
       <r>   11.8392    0.0000 </r>
       <r>   14.1350    0.0000 </r>
       <r>   15.5791    0.0000 </r>
       <r>   16.7275    0.0000 </r>
       <r>   17.6098    0.0000 </r>
       <r>   20.3508    0.0000 </r>
       <r>   21.1205    0.0000 </r>
       <r>   21.3139    0.0000 </r>
       <r>   23.4004    0.0000 </r>
       <r>   24.8744    0.0000 </r>
       <r>   25.9328    0.0000 </r>
       <r>   27.2251    0.0000 </r>
      </set>
      <set comment="kpoint 9">
       <r>  -11.3953    1.0000 </r>
       <r>  -11.3060    1.0000 </r>
       <r>  -11.2999    1.0000 </r>
       <r>  -11.1852    1.0000 </r>
       <r>  -11.1740    1.0000 </r>
       <r>   -7.2324    1.0000 </r>
       <r>    0.9156    1.0000 </r>
       <r>    2.7615    1.0000 </r>
       <r>    4.0571    1.0000 </r>
       <r>    8.0011    0.0000 </r>
       <r>    9.7725    0.0000 </r>
       <r>   10.2391    0.0000 </r>
       <r>   10.6718    0.0000 </r>
       <r>   13.1742    0.0000 </r>
       <r>   14.9981    0.0000 </r>
       <r>   16.4770    0.0000 </r>
       <r>   17.0524    0.0000 </r>
       <r>   19.3087    0.0000 </r>
       <r>   20.8806    0.0000 </r>
       <r>   21.4719    0.0000 </r>
       <r>   23.4133    0.0000 </r>
       <r>   24.4616    0.0000 </r>
       <r>   24.7451    0.0000 </r>
       <r>   26.0457    0.0000 </r>
      </set>
      <set comment="kpoint 10">
       <r>  -11.4637    1.0000 </r>
       <r>  -11.2585    1.0000 </r>
       <r>  -11.2585    1.0000 </r>
       <r>  -11.2139    1.0000 </r>
       <r>  -11.1571    1.0000 </r>
       <r>   -6.4907    1.0000 </r>
       <r>   -0.2305    1.0000 </r>
       <r>    2.5147    1.0000 </r>
       <r>    2.5147    1.0000 </r>
       <r>    7.2708    0.0000 </r>
       <r>    8.1382    0.0000 </r>
       <r>   13.1223    0.0000 </r>
       <r>   13.1602    0.0000 </r>
       <r>   13.1602    0.0000 </r>
       <r>   15.9957    0.0000 </r>
       <r>   18.8950    0.0000 </r>
       <r>   19.9362    0.0000 </r>
       <r>   19.9362    0.0000 </r>
       <r>   20.4714    0.0000 </r>
       <r>   20.5964    0.0000 </r>
       <r>   20.5964    0.0000 </r>
       <r>   22.7832    0.0000 </r>
       <r>   23.3039    0.0000 </r>
       <r>   27.1548    0.0000 </r>
      </set>
      <set comment="kpoint 11">
       <r>  -11.4793    1.0000 </r>
       <r>  -11.2544    1.0000 </r>
       <r>  -11.2463    1.0000 </r>
       <r>  -11.2125    1.0000 </r>
       <r>  -11.1565    1.0000 </r>
       <r>   -5.8137    1.0000 </r>
       <r>   -1.2508    1.0000 </r>
       <r>    1.5843    1.0000 </r>
       <r>    2.3538    1.0000 </r>
       <r>    7.4661    0.0000 </r>
       <r>    8.7562    0.0000 </r>
       <r>   12.6714    0.0000 </r>
       <r>   13.3564    0.0000 </r>
       <r>   15.1660    0.0000 </r>
       <r>   16.5722    0.0000 </r>
       <r>   17.7140    0.0000 </r>
       <r>   18.5458    0.0000 </r>
       <r>   19.4053    0.0000 </r>
       <r>   21.2844    0.0000 </r>
       <r>   22.3058    0.0000 </r>
       <r>   22.7232    0.0000 </r>
       <r>   23.8409    0.0000 </r>
       <r>   24.5292    0.0000 </r>
       <r>   25.3483    0.0000 </r>
      </set>
      <set comment="kpoint 12">
       <r>  -11.4609    1.0000 </r>
       <r>  -11.2724    1.0000 </r>
       <r>  -11.2569    1.0000 </r>
       <r>  -11.1936    1.0000 </r>
       <r>  -11.1699    1.0000 </r>
       <r>   -5.7419    1.0000 </r>
       <r>   -1.3142    1.0000 </r>
       <r>    0.9401    1.0000 </r>
       <r>    2.7576    1.0000 </r>
       <r>    7.8773    0.0000 </r>
       <r>   10.5574    0.0000 </r>
       <r>   12.3295    0.0000 </r>
       <r>   12.4913    0.0000 </r>
       <r>   13.4766    0.0000 </r>
       <r>   14.7416    0.0000 </r>
       <r>   18.7800    0.0000 </r>
       <r>   19.6859    0.0000 </r>
       <r>   20.0824    0.0000 </r>
       <r>   20.7346    0.0000 </r>
       <r>   20.9879    0.0000 </r>
       <r>   23.2626    0.0000 </r>
       <r>   25.3061    0.0000 </r>
       <r>   26.1399    0.0000 </r>
       <r>   26.7725    0.0000 </r>
      </set>
      <set comment="kpoint 13">
       <r>  -11.5009    1.0000 </r>
       <r>  -11.2331    1.0000 </r>
       <r>  -11.2331    1.0000 </r>
       <r>  -11.2270    1.0000 </r>
       <r>  -11.1493    1.0000 </r>
       <r>   -5.5856    1.0000 </r>
       <r>   -1.6244    1.0000 </r>
       <r>    2.0585    1.0000 </r>
       <r>    2.0585    1.0000 </r>
       <r>    6.9372    0.0000 </r>
       <r>    7.5282    0.0000 </r>
       <r>   14.8122    0.0000 </r>
       <r>   15.2946    0.0000 </r>
       <r>   15.2946    0.0000 </r>
       <r>   16.5048    0.0000 </r>
       <r>   17.4696    0.0000 </r>
       <r>   17.4696    0.0000 </r>
       <r>   19.0606    0.0000 </r>
       <r>   21.8836    0.0000 </r>
       <r>   21.9836    0.0000 </r>
       <r>   24.1254    0.0000 </r>
       <r>   24.1254    0.0000 </r>
       <r>   24.4796    0.0000 </r>
       <r>   25.1089    0.0000 </r>
      </set>
      <set comment="kpoint 14">
       <r>  -11.4508    1.0000 </r>
       <r>  -11.2791    1.0000 </r>
       <r>  -11.2626    1.0000 </r>
       <r>  -11.1983    1.0000 </r>
       <r>  -11.1644    1.0000 </r>
       <r>   -6.2338    1.0000 </r>
       <r>   -0.6970    1.0000 </r>
       <r>    1.6774    1.0000 </r>
       <r>    2.7240    1.0000 </r>
       <r>    8.8838    0.0000 </r>
       <r>    9.1258    0.0000 </r>
       <r>   10.4141    0.0000 </r>
       <r>   13.0401    0.0000 </r>
       <r>   13.8678    0.0000 </r>
       <r>   16.7244    0.0000 </r>
       <r>   17.4675    0.0000 </r>
       <r>   18.2618    0.0000 </r>
       <r>   19.2912    0.0000 </r>
       <r>   20.4601    0.0000 </r>
       <r>   22.4639    0.0000 </r>
       <r>   23.2204    0.0000 </r>
       <r>   23.9610    0.0000 </r>
       <r>   25.4012    0.0000 </r>
       <r>   26.2151    0.0000 </r>
      </set>
      <set comment="kpoint 15">
       <r>  -11.4599    1.0000 </r>
       <r>  -11.2791    1.0000 </r>
       <r>  -11.2524    1.0000 </r>
       <r>  -11.1934    1.0000 </r>
       <r>  -11.1688    1.0000 </r>
       <r>   -5.7410    1.0000 </r>
       <r>   -1.3596    1.0000 </r>
       <r>    1.2549    1.0000 </r>
       <r>    2.3387    1.0000 </r>
       <r>    9.0010    0.0000 </r>
       <r>    9.5949    0.0000 </r>
       <r>   11.1730    0.0000 </r>
       <r>   12.8585    0.0000 </r>
       <r>   13.7729    0.0000 </r>
       <r>   16.6861    0.0000 </r>
       <r>   17.2894    0.0000 </r>
       <r>   18.4762    0.0000 </r>
       <r>   20.2850    0.0000 </r>
       <r>   21.1638    0.0000 </r>
       <r>   22.0103    0.0000 </r>
       <r>   23.3848    0.0000 </r>
       <r>   24.6849    0.0000 </r>
       <r>   25.4975    0.0000 </r>
       <r>   26.8440    0.0000 </r>
      </set>
      <set comment="kpoint 16">
       <r>  -11.4784    1.0000 </r>
       <r>  -11.2624    1.0000 </r>
       <r>  -11.2393    1.0000 </r>
       <r>  -11.2073    1.0000 </r>
       <r>  -11.1611    1.0000 </r>
       <r>   -5.5299    1.0000 </r>
       <r>   -1.4948    1.0000 </r>
       <r>    1.5451    1.0000 </r>
       <r>    1.6012    1.0000 </r>
       <r>    8.5223    0.0000 </r>
       <r>    8.9856    0.0000 </r>
       <r>   12.2754    0.0000 </r>
       <r>   12.5587    0.0000 </r>
       <r>   15.7764    0.0000 </r>
       <r>   16.9852    0.0000 </r>
       <r>   17.6381    0.0000 </r>
       <r>   17.6747    0.0000 </r>
       <r>   20.4952    0.0000 </r>
       <r>   21.7017    0.0000 </r>
       <r>   22.8637    0.0000 </r>
       <r>   23.2487    0.0000 </r>
       <r>   23.4298    0.0000 </r>
       <r>   23.6987    0.0000 </r>
       <r>   25.6968    0.0000 </r>
      </set>
     </set>
     <set comment="spin 2">
      <set comment="kpoint 1">
       <r>  -11.3312    1.0000 </r>
       <r>  -11.3312    1.0000 </r>
       <r>  -11.3312    1.0000 </r>
       <r>  -11.1803    1.0000 </r>
       <r>  -11.1803    1.0000 </r>
       <r>   -8.0696    1.0000 </r>
       <r>    4.5237    1.0000 </r>
       <r>    4.5237    1.0000 </r>
       <r>    4.5237    1.0000 </r>
       <r>    5.9037    0.0000 </r>
       <r>    9.4568    0.0000 </r>
       <r>    9.4568    0.0000 </r>
       <r>    9.4568    0.0000 </r>
       <r>   14.0102    0.0000 </r>
       <r>   15.0028    0.0000 </r>
       <r>   15.0028    0.0000 </r>
       <r>   16.6693    0.0000 </r>
       <r>   16.6693    0.0000 </r>
       <r>   16.6693    0.0000 </r>
       <r>   19.1992    0.0000 </r>
       <r>   28.0148    0.0000 </r>
       <r>   28.0148    0.0000 </r>
       <r>   28.0148    0.0000 </r>
       <r>   29.8943    0.0000 </r>
      </set>
      <set comment="kpoint 2">
       <r>  -11.3589    1.0000 </r>
       <r>  -11.3195    1.0000 </r>
       <r>  -11.3195    1.0000 </r>
       <r>  -11.1800    1.0000 </r>
       <r>  -11.1800    1.0000 </r>
       <r>   -7.7408    1.0000 </r>
       <r>    2.2653    1.0000 </r>
       <r>    4.2076    1.0000 </r>
       <r>    4.2076    1.0000 </r>
       <r>    7.0289    0.0000 </r>
       <r>    9.8393    0.0000 </r>
       <r>    9.9194    0.0000 </r>
       <r>    9.9194    0.0000 </r>
       <r>   14.1017    0.0000 </r>
       <r>   14.1017    0.0000 </r>
       <r>   14.9271    0.0000 </r>
       <r>   16.3784    0.0000 </r>
       <r>   18.6671    0.0000 </r>
       <r>   18.6671    0.0000 </r>
       <r>   21.3529    0.0000 </r>
       <r>   24.8450    0.0000 </r>
       <r>   24.9408    0.0000 </r>
       <r>   24.9408    0.0000 </r>
       <r>   29.5477    0.0000 </r>
      </set>
      <set comment="kpoint 3">
       <r>  -11.4112    1.0000 </r>
       <r>  -11.3004    1.0000 </r>
       <r>  -11.3004    1.0000 </r>
       <r>  -11.1746    1.0000 </r>
       <r>  -11.1746    1.0000 </r>
       <r>   -6.8935    1.0000 </r>
       <r>   -0.3496    1.0000 </r>
       <r>    3.7055    1.0000 </r>
       <r>    3.7055    1.0000 </r>
       <r>    6.9022    0.0000 </r>
       <r>   10.2649    0.0000 </r>
       <r>   10.2649    0.0000 </r>
       <r>   11.7170    0.0000 </r>
       <r>   14.3106    0.0000 </r>
       <r>   14.6334    0.0000 </r>
       <r>   14.6334    0.0000 </r>
       <r>   19.4661    0.0000 </r>
       <r>   20.8054    0.0000 </r>
       <r>   20.8054    0.0000 </r>
       <r>   21.3417    0.0000 </r>
       <r>   22.1777    0.0000 </r>
       <r>   22.1777    0.0000 </r>
       <r>   25.3445    0.0000 </r>
       <r>   29.3713    0.0000 </r>
      </set>
      <set comment="kpoint 4">
       <r>  -11.4362    1.0000 </r>
       <r>  -11.2937    1.0000 </r>
       <r>  -11.2937    1.0000 </r>
       <r>  -11.1689    1.0000 </r>
       <r>  -11.1689    1.0000 </r>
       <r>   -6.2712    1.0000 </r>
       <r>   -1.6070    1.0000 </r>
       <r>    3.4954    1.0000 </r>
       <r>    3.4954    1.0000 </r>
       <r>    6.7354    0.0000 </r>
       <r>   10.1906    0.0000 </r>
       <r>   10.1906    0.0000 </r>
       <r>   12.5292    0.0000 </r>
       <r>   15.0036    0.0000 </r>
       <r>   16.3192    0.0000 </r>
       <r>   16.3192    0.0000 </r>
       <r>   18.0318    0.0000 </r>
       <r>   18.3007    0.0000 </r>
       <r>   18.3007    0.0000 </r>
       <r>   23.9522    0.0000 </r>
       <r>   25.2264    0.0000 </r>
       <r>   25.2264    0.0000 </r>
       <r>   26.3297    0.0000 </r>
       <r>   26.7840    0.0000 </r>
      </set>
      <set comment="kpoint 5">
       <r>  -11.3798    1.0000 </r>
       <r>  -11.3075    1.0000 </r>
       <r>  -11.3075    1.0000 </r>
       <r>  -11.1900    1.0000 </r>
       <r>  -11.1725    1.0000 </r>
       <r>   -7.6321    1.0000 </r>
       <r>    2.3117    1.0000 </r>
       <r>    3.6766    1.0000 </r>
       <r>    3.6766    1.0000 </r>
       <r>    7.9089    0.0000 </r>
       <r>    8.4128    0.0000 </r>
       <r>   10.7145    0.0000 </r>
       <r>   10.7145    0.0000 </r>
       <r>   12.6548    0.0000 </r>
       <r>   15.2808    0.0000 </r>
       <r>   16.0155    0.0000 </r>
       <r>   17.6136    0.0000 </r>
       <r>   17.6136    0.0000 </r>
       <r>   17.9259    0.0000 </r>
       <r>   22.5760    0.0000 </r>
       <r>   24.2331    0.0000 </r>
       <r>   24.2331    0.0000 </r>
       <r>   26.0598    0.0000 </r>
       <r>   26.3955    0.0000 </r>
      </set>
      <set comment="kpoint 6">
       <r>  -11.4214    1.0000 </r>
       <r>  -11.2904    1.0000 </r>
       <r>  -11.2857    1.0000 </r>
       <r>  -11.1944    1.0000 </r>
       <r>  -11.1659    1.0000 </r>
       <r>   -6.9474    1.0000 </r>
       <r>    0.3184    1.0000 </r>
       <r>    2.9739    1.0000 </r>
       <r>    3.1452    1.0000 </r>
       <r>    7.9989    0.0000 </r>
       <r>    9.0944    0.0000 </r>
       <r>   10.9060    0.0000 </r>
       <r>   11.4144    0.0000 </r>
       <r>   13.5955    0.0000 </r>
       <r>   15.5733    0.0000 </r>
       <r>   16.2466    0.0000 </r>
       <r>   18.8250    0.0000 </r>
       <r>   19.8922    0.0000 </r>
       <r>   20.8658    0.0000 </r>
       <r>   20.9431    0.0000 </r>
       <r>   21.4740    0.0000 </r>
       <r>   24.3703    0.0000 </r>
       <r>   25.9285    0.0000 </r>
       <r>   26.2045    0.0000 </r>
      </set>
      <set comment="kpoint 7">
       <r>  -11.4449    1.0000 </r>
       <r>  -11.2855    1.0000 </r>
       <r>  -11.2770    1.0000 </r>
       <r>  -11.1845    1.0000 </r>
       <r>  -11.1658    1.0000 </r>
       <r>   -6.1446    1.0000 </r>
       <r>   -1.3260    1.0000 </r>
       <r>    2.2656    1.0000 </r>
       <r>    3.0559    1.0000 </r>
       <r>    7.8600    0.0000 </r>
       <r>    9.7464    0.0000 </r>
       <r>   11.1541    0.0000 </r>
       <r>   12.0688    0.0000 </r>
       <r>   14.8167    0.0000 </r>
       <r>   16.3766    0.0000 </r>
       <r>   16.5337    0.0000 </r>
       <r>   17.6181    0.0000 </r>
       <r>   18.6144    0.0000 </r>
       <r>   21.3648    0.0000 </r>
       <r>   22.8884    0.0000 </r>
       <r>   23.3645    0.0000 </r>
       <r>   25.0657    0.0000 </r>
       <r>   25.7183    0.0000 </r>
       <r>   26.7350    0.0000 </r>
      </set>
      <set comment="kpoint 8">
       <r>  -11.4336    1.0000 </r>
       <r>  -11.2885    1.0000 </r>
       <r>  -11.2845    1.0000 </r>
       <r>  -11.1781    1.0000 </r>
       <r>  -11.1742    1.0000 </r>
       <r>   -6.3680    1.0000 </r>
       <r>   -0.9148    1.0000 </r>
       <r>    2.0705    1.0000 </r>
       <r>    3.4548    1.0000 </r>
       <r>    8.0116    0.0000 </r>
       <r>    9.9828    0.0000 </r>
       <r>   10.8038    0.0000 </r>
       <r>   11.8404    0.0000 </r>
       <r>   14.1361    0.0000 </r>
       <r>   15.5805    0.0000 </r>
       <r>   16.7287    0.0000 </r>
       <r>   17.6107    0.0000 </r>
       <r>   20.3523    0.0000 </r>
       <r>   21.1215    0.0000 </r>
       <r>   21.3148    0.0000 </r>
       <r>   23.4017    0.0000 </r>
       <r>   24.8756    0.0000 </r>
       <r>   25.9337    0.0000 </r>
       <r>   27.2266    0.0000 </r>
      </set>
      <set comment="kpoint 9">
       <r>  -11.3951    1.0000 </r>
       <r>  -11.3059    1.0000 </r>
       <r>  -11.2997    1.0000 </r>
       <r>  -11.1851    1.0000 </r>
       <r>  -11.1738    1.0000 </r>
       <r>   -7.2317    1.0000 </r>
       <r>    0.9163    1.0000 </r>
       <r>    2.7623    1.0000 </r>
       <r>    4.0578    1.0000 </r>
       <r>    8.0018    0.0000 </r>
       <r>    9.7737    0.0000 </r>
       <r>   10.2399    0.0000 </r>
       <r>   10.6729    0.0000 </r>
       <r>   13.1754    0.0000 </r>
       <r>   14.9993    0.0000 </r>
       <r>   16.4785    0.0000 </r>
       <r>   17.0539    0.0000 </r>
       <r>   19.3103    0.0000 </r>
       <r>   20.8816    0.0000 </r>
       <r>   21.4731    0.0000 </r>
       <r>   23.4147    0.0000 </r>
       <r>   24.4634    0.0000 </r>
       <r>   24.7460    0.0000 </r>
       <r>   26.0467    0.0000 </r>
      </set>
      <set comment="kpoint 10">
       <r>  -11.4635    1.0000 </r>
       <r>  -11.2583    1.0000 </r>
       <r>  -11.2583    1.0000 </r>
       <r>  -11.2137    1.0000 </r>
       <r>  -11.1570    1.0000 </r>
       <r>   -6.4900    1.0000 </r>
       <r>   -0.2298    1.0000 </r>
       <r>    2.5154    1.0000 </r>
       <r>    2.5154    1.0000 </r>
       <r>    7.2721    0.0000 </r>
       <r>    8.1393    0.0000 </r>
       <r>   13.1235    0.0000 </r>
       <r>   13.1610    0.0000 </r>
       <r>   13.1610    0.0000 </r>
       <r>   15.9965    0.0000 </r>
       <r>   18.8969    0.0000 </r>
       <r>   19.9372    0.0000 </r>
       <r>   19.9372    0.0000 </r>
       <r>   20.4730    0.0000 </r>
       <r>   20.5977    0.0000 </r>
       <r>   20.5977    0.0000 </r>
       <r>   22.7842    0.0000 </r>
       <r>   23.3048    0.0000 </r>
       <r>   27.1562    0.0000 </r>
      </set>
      <set comment="kpoint 11">
       <r>  -11.4792    1.0000 </r>
       <r>  -11.2542    1.0000 </r>
       <r>  -11.2461    1.0000 </r>
       <r>  -11.2123    1.0000 </r>
       <r>  -11.1564    1.0000 </r>
       <r>   -5.8130    1.0000 </r>
       <r>   -1.2502    1.0000 </r>
       <r>    1.5851    1.0000 </r>
       <r>    2.3546    1.0000 </r>
       <r>    7.4674    0.0000 </r>
       <r>    8.7573    0.0000 </r>
       <r>   12.6725    0.0000 </r>
       <r>   13.3572    0.0000 </r>
       <r>   15.1671    0.0000 </r>
       <r>   16.5731    0.0000 </r>
       <r>   17.7150    0.0000 </r>
       <r>   18.5468    0.0000 </r>
       <r>   19.4070    0.0000 </r>
       <r>   21.2855    0.0000 </r>
       <r>   22.3070    0.0000 </r>
       <r>   22.7246    0.0000 </r>
       <r>   23.8420    0.0000 </r>
       <r>   24.5308    0.0000 </r>
       <r>   25.3495    0.0000 </r>
      </set>
      <set comment="kpoint 12">
       <r>  -11.4607    1.0000 </r>
       <r>  -11.2722    1.0000 </r>
       <r>  -11.2567    1.0000 </r>
       <r>  -11.1934    1.0000 </r>
       <r>  -11.1698    1.0000 </r>
       <r>   -5.7413    1.0000 </r>
       <r>   -1.3135    1.0000 </r>
       <r>    0.9410    1.0000 </r>
       <r>    2.7583    1.0000 </r>
       <r>    7.8784    0.0000 </r>
       <r>   10.5583    0.0000 </r>
       <r>   12.3303    0.0000 </r>
       <r>   12.4926    0.0000 </r>
       <r>   13.4777    0.0000 </r>
       <r>   14.7426    0.0000 </r>
       <r>   18.7815    0.0000 </r>
       <r>   19.6873    0.0000 </r>
       <r>   20.0833    0.0000 </r>
       <r>   20.7354    0.0000 </r>
       <r>   20.9890    0.0000 </r>
       <r>   23.2636    0.0000 </r>
       <r>   25.3073    0.0000 </r>
       <r>   26.1411    0.0000 </r>
       <r>   26.7739    0.0000 </r>
      </set>
      <set comment="kpoint 13">
       <r>  -11.5007    1.0000 </r>
       <r>  -11.2329    1.0000 </r>
       <r>  -11.2329    1.0000 </r>
       <r>  -11.2268    1.0000 </r>
       <r>  -11.1491    1.0000 </r>
       <r>   -5.5850    1.0000 </r>
       <r>   -1.6237    1.0000 </r>
       <r>    2.0593    1.0000 </r>
       <r>    2.0593    1.0000 </r>
       <r>    6.9386    0.0000 </r>
       <r>    7.5293    0.0000 </r>
       <r>   14.8134    0.0000 </r>
       <r>   15.2953    0.0000 </r>
       <r>   15.2953    0.0000 </r>
       <r>   16.5056    0.0000 </r>
       <r>   17.4706    0.0000 </r>
       <r>   17.4706    0.0000 </r>
       <r>   19.0619    0.0000 </r>
       <r>   21.8852    0.0000 </r>
       <r>   21.9845    0.0000 </r>
       <r>   24.1267    0.0000 </r>
       <r>   24.1267    0.0000 </r>
       <r>   24.4814    0.0000 </r>
       <r>   25.1103    0.0000 </r>
      </set>
      <set comment="kpoint 14">
       <r>  -11.4507    1.0000 </r>
       <r>  -11.2789    1.0000 </r>
       <r>  -11.2625    1.0000 </r>
       <r>  -11.1982    1.0000 </r>
       <r>  -11.1643    1.0000 </r>
       <r>   -6.2332    1.0000 </r>
       <r>   -0.6963    1.0000 </r>
       <r>    1.6782    1.0000 </r>
       <r>    2.7247    1.0000 </r>
       <r>    8.8848    0.0000 </r>
       <r>    9.1268    0.0000 </r>
       <r>   10.4153    0.0000 </r>
       <r>   13.0410    0.0000 </r>
       <r>   13.8689    0.0000 </r>
       <r>   16.7254    0.0000 </r>
       <r>   17.4684    0.0000 </r>
       <r>   18.2635    0.0000 </r>
       <r>   19.2927    0.0000 </r>
       <r>   20.4611    0.0000 </r>
       <r>   22.4648    0.0000 </r>
       <r>   23.2217    0.0000 </r>
       <r>   23.9625    0.0000 </r>
       <r>   25.4022    0.0000 </r>
       <r>   26.2162    0.0000 </r>
      </set>
      <set comment="kpoint 15">
       <r>  -11.4597    1.0000 </r>
       <r>  -11.2790    1.0000 </r>
       <r>  -11.2522    1.0000 </r>
       <r>  -11.1933    1.0000 </r>
       <r>  -11.1687    1.0000 </r>
       <r>   -5.7404    1.0000 </r>
       <r>   -1.3589    1.0000 </r>
       <r>    1.2558    1.0000 </r>
       <r>    2.3395    1.0000 </r>
       <r>    9.0019    0.0000 </r>
       <r>    9.5961    0.0000 </r>
       <r>   11.1739    0.0000 </r>
       <r>   12.8598    0.0000 </r>
       <r>   13.7738    0.0000 </r>
       <r>   16.6873    0.0000 </r>
       <r>   17.2903    0.0000 </r>
       <r>   18.4777    0.0000 </r>
       <r>   20.2860    0.0000 </r>
       <r>   21.1647    0.0000 </r>
       <r>   22.0118    0.0000 </r>
       <r>   23.3861    0.0000 </r>
       <r>   24.6860    0.0000 </r>
       <r>   25.4985    0.0000 </r>
       <r>   26.8453    0.0000 </r>
      </set>
      <set comment="kpoint 16">
       <r>  -11.4783    1.0000 </r>
       <r>  -11.2623    1.0000 </r>
       <r>  -11.2392    1.0000 </r>
       <r>  -11.2071    1.0000 </r>
       <r>  -11.1610    1.0000 </r>
       <r>   -5.5293    1.0000 </r>
       <r>   -1.4942    1.0000 </r>
       <r>    1.5459    1.0000 </r>
       <r>    1.6020    1.0000 </r>
       <r>    8.5236    0.0000 </r>
       <r>    8.9864    0.0000 </r>
       <r>   12.2764    0.0000 </r>
       <r>   12.5599    0.0000 </r>
       <r>   15.7774    0.0000 </r>
       <r>   16.9860    0.0000 </r>
       <r>   17.6393    0.0000 </r>
       <r>   17.6756    0.0000 </r>
       <r>   20.4968    0.0000 </r>
       <r>   21.7026    0.0000 </r>
       <r>   22.8648    0.0000 </r>
       <r>   23.2501    0.0000 </r>
       <r>   23.4311    0.0000 </r>
       <r>   23.6999    0.0000 </r>
       <r>   25.6978    0.0000 </r>
      </set>
     </set>
    </set>
   </array>
  </eigenvalues>
  <separator name="orbital magnetization" >
   <v name="MAGDIPOLOUT">      0.00000000      0.00000000      0.00000000</v>
  </separator>
  <dos>
   <i name="efermi">      4.65269859 </i>
   <total>
    <array>
     <dimension dim="1">gridpoints</dimension>
     <dimension dim="2">spin</dimension>
     <field>energy</field>
     <field>total</field>
     <field>integrated</field>
     <set>
      <set comment="spin 1">
       <r>   -13.5707     0.0000     0.0000 </r>
       <r>   -13.4189     0.0000     0.0000 </r>
       <r>   -13.2671     0.0000     0.0000 </r>
       <r>   -13.1153     0.0000     0.0000 </r>
       <r>   -12.9635     0.0000     0.0000 </r>
       <r>   -12.8118     0.0000     0.0000 </r>
       <r>   -12.6600     0.0000     0.0000 </r>
       <r>   -12.5082     0.0000     0.0000 </r>
       <r>   -12.3564     0.0000     0.0000 </r>
       <r>   -12.2046     0.0000     0.0000 </r>
       <r>   -12.0529     0.0000     0.0000 </r>
       <r>   -11.9011     0.0000     0.0000 </r>
       <r>   -11.7493     0.0000     0.0000 </r>
       <r>   -11.5975     0.0000     0.0000 </r>
       <r>   -11.4457    17.7715     0.5060 </r>
       <r>   -11.2939    30.6674     1.3324 </r>
       <r>   -11.1422    21.9613     5.0000 </r>
       <r>   -10.9904     0.0000     5.0000 </r>
       <r>   -10.8386     0.0000     5.0000 </r>
       <r>   -10.6868     0.0000     5.0000 </r>
       <r>   -10.5350     0.0000     5.0000 </r>
       <r>   -10.3832     0.0000     5.0000 </r>
       <r>   -10.2315     0.0000     5.0000 </r>
       <r>   -10.0797     0.0000     5.0000 </r>
       <r>    -9.9279     0.0000     5.0000 </r>
       <r>    -9.7761     0.0000     5.0000 </r>
       <r>    -9.6243     0.0000     5.0000 </r>
       <r>    -9.4726     0.0000     5.0000 </r>
       <r>    -9.3208     0.0000     5.0000 </r>
       <r>    -9.1690     0.0000     5.0000 </r>
       <r>    -9.0172     0.0000     5.0000 </r>
       <r>    -8.8654     0.0000     5.0000 </r>
       <r>    -8.7136     0.0000     5.0000 </r>
       <r>    -8.5619     0.0000     5.0000 </r>
       <r>    -8.4101     0.0000     5.0000 </r>
       <r>    -8.2583     0.0000     5.0000 </r>
       <r>    -8.1065     0.0000     5.0000 </r>
       <r>    -7.9547     0.0157     5.0006 </r>
       <r>    -7.8029     0.0839     5.0075 </r>
       <r>    -7.6512     0.1168     5.0246 </r>
       <r>    -7.4994     0.1463     5.0445 </r>
       <r>    -7.3476     0.1794     5.0692 </r>
       <r>    -7.1958     0.2152     5.0991 </r>
       <r>    -7.0440     0.2523     5.1346 </r>
       <r>    -6.8922     0.2921     5.1758 </r>
       <r>    -6.7405     0.3449     5.2240 </r>
       <r>    -6.5887     0.4064     5.2809 </r>
       <r>    -6.4369     0.4768     5.3478 </r>
       <r>    -6.2851     0.7228     5.4311 </r>
       <r>    -6.1333     0.7512     5.5607 </r>
       <r>    -5.9816     0.7616     5.6753 </r>
       <r>    -5.8298     0.7882     5.7927 </r>
       <r>    -5.6780     0.8464     5.9432 </r>
       <r>    -5.5262     0.0000     6.0000 </r>
       <r>    -5.3744     0.0000     6.0000 </r>
       <r>    -5.2226     0.0000     6.0000 </r>
       <r>    -5.0709     0.0000     6.0000 </r>
       <r>    -4.9191     0.0000     6.0000 </r>
       <r>    -4.7673     0.0000     6.0000 </r>
       <r>    -4.6155     0.0000     6.0000 </r>
       <r>    -4.4637     0.0000     6.0000 </r>
       <r>    -4.3119     0.0000     6.0000 </r>
       <r>    -4.1602     0.0000     6.0000 </r>
       <r>    -4.0084     0.0000     6.0000 </r>
       <r>    -3.8566     0.0000     6.0000 </r>
       <r>    -3.7048     0.0000     6.0000 </r>
       <r>    -3.5530     0.0000     6.0000 </r>
       <r>    -3.4013     0.0000     6.0000 </r>
       <r>    -3.2495     0.0000     6.0000 </r>
       <r>    -3.0977     0.0000     6.0000 </r>
       <r>    -2.9459     0.0000     6.0000 </r>
       <r>    -2.7941     0.0000     6.0000 </r>
       <r>    -2.6423     0.0000     6.0000 </r>
       <r>    -2.4906     0.0000     6.0000 </r>
       <r>    -2.3388     0.0000     6.0000 </r>
       <r>    -2.1870     0.0000     6.0000 </r>
       <r>    -2.0352     0.0000     6.0000 </r>
       <r>    -1.8834     0.0000     6.0000 </r>
       <r>    -1.7316     0.0000     6.0000 </r>
       <r>    -1.5799     0.0147     6.0002 </r>
       <r>    -1.4281     0.6911     6.0336 </r>
       <r>    -1.2763     1.5123     6.2603 </r>
       <r>    -1.1245     0.8286     6.4152 </r>
       <r>    -0.9727     0.5826     6.5210 </r>
       <r>    -0.8210     0.3652     6.5935 </r>
       <r>    -0.6692     0.2755     6.6399 </r>
       <r>    -0.5174     0.2522     6.6799 </r>
       <r>    -0.3656     0.2313     6.7166 </r>
       <r>    -0.2138     0.2120     6.7502 </r>
       <r>    -0.0620     0.1919     6.7809 </r>
       <r>     0.0897     0.1699     6.8084 </r>
       <r>     0.2415     0.1462     6.8324 </r>
       <r>     0.3933     0.1221     6.8527 </r>
       <r>     0.5451     0.1028     6.8697 </r>
       <r>     0.6969     0.0885     6.8842 </r>
       <r>     0.8487     0.0793     6.8968 </r>
       <r>     1.0004     0.0886     6.9087 </r>
       <r>     1.1522     0.2474     6.9319 </r>
       <r>     1.3040     0.5736     6.9929 </r>
       <r>     1.4558     0.7598     7.0974 </r>
       <r>     1.6076     0.9849     7.2270 </r>
       <r>     1.7593     0.6490     7.3341 </r>
       <r>     1.9111     0.6817     7.4343 </r>
       <r>     2.0629     0.7782     7.5443 </r>
       <r>     2.2147     0.8596     7.6692 </r>
       <r>     2.3665     0.9063     7.8028 </r>
       <r>     2.5183     0.9236     7.9425 </r>
       <r>     2.6700     0.9010     8.0812 </r>
       <r>     2.8218     0.8755     8.2157 </r>
       <r>     2.9736     0.8748     8.3482 </r>
       <r>     3.1254     0.8361     8.4769 </r>
       <r>     3.2772     0.8054     8.6023 </r>
       <r>     3.4290     0.7031     8.7177 </r>
       <r>     3.5807     0.4712     8.8080 </r>
       <r>     3.7325     0.3405     8.8676 </r>
       <r>     3.8843     0.2779     8.9144 </r>
       <r>     4.0361     0.2324     8.9529 </r>
       <r>     4.1879     0.1507     8.9834 </r>
       <r>     4.3396     0.0443     8.9973 </r>
       <r>     4.4914     0.0013     9.0000 </r>
       <r>     4.6432     0.0000     9.0000 </r>
       <r>     4.7950     0.0000     9.0000 </r>
       <r>     4.9468     0.0000     9.0000 </r>
       <r>     5.0986     0.0000     9.0000 </r>
       <r>     5.2503     0.0000     9.0000 </r>
       <r>     5.4021     0.0000     9.0000 </r>
       <r>     5.5539     0.0000     9.0000 </r>
       <r>     5.7057     0.0000     9.0000 </r>
       <r>     5.8575     0.0000     9.0000 </r>
       <r>     6.0093     0.0002     9.0000 </r>
       <r>     6.1610     0.0015     9.0001 </r>
       <r>     6.3128     0.0037     9.0005 </r>
       <r>     6.4646     0.0069     9.0013 </r>
       <r>     6.6164     0.0111     9.0027 </r>
       <r>     6.7682     0.0170     9.0047 </r>
       <r>     6.9199     0.0411     9.0088 </r>
       <r>     7.0717     0.1129     9.0196 </r>
       <r>     7.2235     0.2321     9.0453 </r>
       <r>     7.3753     0.3561     9.0908 </r>
       <r>     7.5271     0.4413     9.1502 </r>
       <r>     7.6789     0.5914     9.2282 </r>
       <r>     7.8306     0.7755     9.3315 </r>
       <r>     7.9824     1.2957     9.4748 </r>
       <r>     8.1342     0.8597     9.6228 </r>
       <r>     8.2860     0.7259     9.7426 </r>
       <r>     8.4378     0.6351     9.8454 </r>
       <r>     8.5896     0.6091     9.9382 </r>
       <r>     8.7413     0.6188    10.0316 </r>
       <r>     8.8931     0.6454    10.1282 </r>
       <r>     9.0449     0.4958    10.2118 </r>
       <r>     9.1967     0.6191    10.2970 </r>
       <r>     9.3485     0.6954    10.3971 </r>
       <r>     9.5002     0.7424    10.5066 </r>
       <r>     9.6520     0.8144    10.6222 </r>
       <r>     9.8038     1.0207    10.7696 </r>
       <r>     9.9556     0.7742    10.9055 </r>
       <r>    10.1074     0.5321    11.0042 </r>
       <r>    10.2592     0.3670    11.0685 </r>
       <r>    10.4109     0.5153    11.1336 </r>
       <r>    10.5627     0.7100    11.2274 </r>
       <r>    10.7145     0.8238    11.3450 </r>
       <r>    10.8663     0.8136    11.4714 </r>
       <r>    11.0181     0.7402    11.5866 </r>
       <r>    11.1699     0.5162    11.7005 </r>
       <r>    11.3216     0.5068    11.7777 </r>
       <r>    11.4734     0.5076    11.8544 </r>
       <r>    11.6252     0.5357    11.9332 </r>
       <r>    11.7770     0.5804    12.0181 </r>
       <r>    11.9288     0.6146    12.1072 </r>
       <r>    12.0805     0.8180    12.2160 </r>
       <r>    12.2323     0.6757    12.3289 </r>
       <r>    12.3841     0.5988    12.4243 </r>
       <r>    12.5359     0.5605    12.5111 </r>
       <r>    12.6877     0.7653    12.6130 </r>
       <r>    12.8395     0.7891    12.7345 </r>
       <r>    12.9912     0.5263    12.8338 </r>
       <r>    13.1430     0.4423    12.9047 </r>
       <r>    13.2948     0.4086    12.9715 </r>
       <r>    13.4466     0.4033    13.0283 </r>
       <r>    13.5984     0.5919    13.1015 </r>
       <r>    13.7502     0.8112    13.2050 </r>
       <r>    13.9019     0.8450    13.3322 </r>
       <r>    14.0537     0.7724    13.4578 </r>
       <r>    14.2055     0.6291    13.5598 </r>
       <r>    14.3573     0.6289    13.6549 </r>
       <r>    14.5091     0.6211    13.7501 </r>
       <r>    14.6609     0.5900    13.8423 </r>
       <r>    14.8126     0.5369    13.9280 </r>
       <r>    14.9644     0.4193    13.9956 </r>
       <r>    15.1162     0.4495    14.0615 </r>
       <r>    15.2680     0.6135    14.1412 </r>
       <r>    15.4198     0.5907    14.2328 </r>
       <r>    15.5715     0.5950    14.3223 </r>
       <r>    15.7233     0.5867    14.4113 </r>
       <r>    15.8751     0.6390    14.5037 </r>
       <r>    16.0269     0.7247    14.6068 </r>
       <r>    16.1787     0.8831    14.7275 </r>
       <r>    16.3305     0.9912    14.8737 </r>
       <r>    16.4822     1.0767    15.0198 </r>
       <r>    16.6340     1.2615    15.2107 </r>
       <r>    16.7858     0.9457    15.3838 </r>
       <r>    16.9376     0.5297    15.4927 </r>
       <r>    17.0894     0.4294    15.5616 </r>
       <r>    17.2412     0.4170    15.6256 </r>
       <r>    17.3929     0.6773    15.7039 </r>
       <r>    17.5447     0.8339    15.8184 </r>
       <r>    17.6965     1.2239    15.9979 </r>
       <r>    17.8483     0.9465    16.1462 </r>
       <r>    18.0001     0.9610    16.2903 </r>
       <r>    18.1518     1.0149    16.4401 </r>
       <r>    18.3036     1.0620    16.5984 </r>
       <r>    18.4554     0.8833    16.7498 </r>
       <r>    18.6072     0.6956    16.8654 </r>
       <r>    18.7590     0.5908    16.9628 </r>
       <r>    18.9108     0.5209    17.0468 </r>
       <r>    19.0625     0.4919    17.1231 </r>
       <r>    19.2143     0.5368    17.1999 </r>
       <r>    19.3661     0.7834    17.2941 </r>
       <r>    19.5179     0.9695    17.4349 </r>
       <r>    19.6697     0.9734    17.5831 </r>
       <r>    19.8215     0.9200    17.7276 </r>
       <r>    19.9732     0.7511    17.8536 </r>
       <r>    20.1250     0.7399    17.9674 </r>
       <r>    20.2768     0.5647    18.0691 </r>
       <r>    20.4286     0.3184    18.1355 </r>
       <r>    20.5804     0.3687    18.1772 </r>
       <r>    20.7321     0.7468    18.2600 </r>
       <r>    20.8839     1.3791    18.4185 </r>
       <r>    21.0357     1.3508    18.6242 </r>
       <r>    21.1875     1.6228    18.8426 </r>
       <r>    21.3393     1.3638    19.0825 </r>
       <r>    21.4911     0.8921    19.2394 </r>
       <r>    21.6428     0.7591    19.3648 </r>
       <r>    21.7946     0.6731    19.4717 </r>
       <r>    21.9464     0.6943    19.5746 </r>
       <r>    22.0982     0.7674    19.6845 </r>
       <r>    22.2500     0.9177    19.8115 </r>
       <r>    22.4018     0.9916    19.9614 </r>
       <r>    22.5535     0.6974    20.0908 </r>
       <r>    22.7053     0.4780    20.1785 </r>
       <r>    22.8571     0.5172    20.2511 </r>
       <r>    23.0089     0.6870    20.3421 </r>
       <r>    23.1607     0.8745    20.4604 </r>
       <r>    23.3124     2.4450    20.6650 </r>
       <r>    23.4642     0.5541    20.9100 </r>
       <r>    23.6160     0.4166    20.9635 </r>
       <r>    23.7678     0.6524    21.0429 </r>
       <r>    23.9196     0.6478    21.1530 </r>
       <r>    24.0714     0.6503    21.2482 </r>
       <r>    24.2231     0.8387    21.3598 </r>
       <r>    24.3749     1.3843    21.5225 </r>
       <r>    24.5267     1.0272    21.7070 </r>
       <r>    24.6785     0.9016    21.8521 </r>
       <r>    24.8303     0.8591    21.9829 </r>
       <r>    24.9821     0.9823    22.1238 </r>
       <r>    25.1338     0.6886    22.2603 </r>
       <r>    25.2856     0.6931    22.3565 </r>
       <r>    25.4374     0.8603    22.4780 </r>
       <r>    25.5892     1.1569    22.6305 </r>
       <r>    25.7410     1.4949    22.8350 </r>
       <r>    25.8927     1.0282    23.0359 </r>
       <r>    26.0445     0.4909    23.1413 </r>
       <r>    26.1963     0.9700    23.2352 </r>
       <r>    26.3481     0.6531    23.3442 </r>
       <r>    26.4999     0.6382    23.4417 </r>
       <r>    26.6517     0.6489    23.5391 </r>
       <r>    26.8034     1.1130    23.6609 </r>
       <r>    26.9552     0.5641    23.7857 </r>
       <r>    27.1070     0.2394    23.8440 </r>
       <r>    27.2588     0.1260    23.8689 </r>
       <r>    27.4106     0.1129    23.8870 </r>
       <r>    27.5624     0.1008    23.9032 </r>
       <r>    27.7141     0.0897    23.9176 </r>
       <r>    27.8659     0.0794    23.9305 </r>
       <r>    28.0177     0.0702    23.9418 </r>
       <r>    28.1695     0.0617    23.9518 </r>
       <r>    28.3213     0.0538    23.9606 </r>
       <r>    28.4730     0.0466    23.9682 </r>
       <r>    28.6248     0.0401    23.9747 </r>
       <r>    28.7766     0.0342    23.9804 </r>
       <r>    28.9284     0.0290    23.9852 </r>
       <r>    29.0802     0.0245    23.9892 </r>
       <r>    29.2320     0.0206    23.9926 </r>
       <r>    29.3837     0.0173    23.9955 </r>
       <r>    29.5355     0.0159    23.9980 </r>
       <r>    29.6873     0.0056    23.9996 </r>
       <r>    29.8391     0.0004    24.0000 </r>
       <r>    29.9909     0.0000    24.0000 </r>
       <r>    30.1427     0.0000    24.0000 </r>
       <r>    30.2944     0.0000    24.0000 </r>
       <r>    30.4462     0.0000    24.0000 </r>
       <r>    30.5980     0.0000    24.0000 </r>
       <r>    30.7498     0.0000    24.0000 </r>
       <r>    30.9016     0.0000    24.0000 </r>
       <r>    31.0533     0.0000    24.0000 </r>
       <r>    31.2051     0.0000    24.0000 </r>
       <r>    31.3569     0.0000    24.0000 </r>
       <r>    31.5087     0.0000    24.0000 </r>
       <r>    31.6605     0.0000    24.0000 </r>
       <r>    31.8123     0.0000    24.0000 </r>
       <r>    31.9640     0.0000    24.0000 </r>
      </set>
      <set comment="spin 2">
       <r>   -13.5707     0.0000     0.0000 </r>
       <r>   -13.4189     0.0000     0.0000 </r>
       <r>   -13.2671     0.0000     0.0000 </r>
       <r>   -13.1153     0.0000     0.0000 </r>
       <r>   -12.9635     0.0000     0.0000 </r>
       <r>   -12.8118     0.0000     0.0000 </r>
       <r>   -12.6600     0.0000     0.0000 </r>
       <r>   -12.5082     0.0000     0.0000 </r>
       <r>   -12.3564     0.0000     0.0000 </r>
       <r>   -12.2046     0.0000     0.0000 </r>
       <r>   -12.0529     0.0000     0.0000 </r>
       <r>   -11.9011     0.0000     0.0000 </r>
       <r>   -11.7493     0.0000     0.0000 </r>
       <r>   -11.5975     0.0000     0.0000 </r>
       <r>   -11.4457    17.7723     0.5033 </r>
       <r>   -11.2939    30.2427     1.3283 </r>
       <r>   -11.1422    21.9613     5.0000 </r>
       <r>   -10.9904     0.0000     5.0000 </r>
       <r>   -10.8386     0.0000     5.0000 </r>
       <r>   -10.6868     0.0000     5.0000 </r>
       <r>   -10.5350     0.0000     5.0000 </r>
       <r>   -10.3832     0.0000     5.0000 </r>
       <r>   -10.2315     0.0000     5.0000 </r>
       <r>   -10.0797     0.0000     5.0000 </r>
       <r>    -9.9279     0.0000     5.0000 </r>
       <r>    -9.7761     0.0000     5.0000 </r>
       <r>    -9.6243     0.0000     5.0000 </r>
       <r>    -9.4726     0.0000     5.0000 </r>
       <r>    -9.3208     0.0000     5.0000 </r>
       <r>    -9.1690     0.0000     5.0000 </r>
       <r>    -9.0172     0.0000     5.0000 </r>
       <r>    -8.8654     0.0000     5.0000 </r>
       <r>    -8.7136     0.0000     5.0000 </r>
       <r>    -8.5619     0.0000     5.0000 </r>
       <r>    -8.4101     0.0000     5.0000 </r>
       <r>    -8.2583     0.0000     5.0000 </r>
       <r>    -8.1065     0.0000     5.0000 </r>
       <r>    -7.9547     0.0155     5.0006 </r>
       <r>    -7.8029     0.0835     5.0074 </r>
       <r>    -7.6512     0.1168     5.0246 </r>
       <r>    -7.4994     0.1461     5.0444 </r>
       <r>    -7.3476     0.1792     5.0691 </r>
       <r>    -7.1958     0.2151     5.0990 </r>
       <r>    -7.0440     0.2521     5.1344 </r>
       <r>    -6.8922     0.2919     5.1756 </r>
       <r>    -6.7405     0.3447     5.2238 </r>
       <r>    -6.5887     0.4062     5.2806 </r>
       <r>    -6.4369     0.4765     5.3475 </r>
       <r>    -6.2851     0.7202     5.4307 </r>
       <r>    -6.1333     0.7512     5.5602 </r>
       <r>    -5.9816     0.7616     5.6748 </r>
       <r>    -5.8298     0.7881     5.7922 </r>
       <r>    -5.6780     0.8503     5.9427 </r>
       <r>    -5.5262     0.0000     6.0000 </r>
       <r>    -5.3744     0.0000     6.0000 </r>
       <r>    -5.2226     0.0000     6.0000 </r>
       <r>    -5.0709     0.0000     6.0000 </r>
       <r>    -4.9191     0.0000     6.0000 </r>
       <r>    -4.7673     0.0000     6.0000 </r>
       <r>    -4.6155     0.0000     6.0000 </r>
       <r>    -4.4637     0.0000     6.0000 </r>
       <r>    -4.3119     0.0000     6.0000 </r>
       <r>    -4.1602     0.0000     6.0000 </r>
       <r>    -4.0084     0.0000     6.0000 </r>
       <r>    -3.8566     0.0000     6.0000 </r>
       <r>    -3.7048     0.0000     6.0000 </r>
       <r>    -3.5530     0.0000     6.0000 </r>
       <r>    -3.4013     0.0000     6.0000 </r>
       <r>    -3.2495     0.0000     6.0000 </r>
       <r>    -3.0977     0.0000     6.0000 </r>
       <r>    -2.9459     0.0000     6.0000 </r>
       <r>    -2.7941     0.0000     6.0000 </r>
       <r>    -2.6423     0.0000     6.0000 </r>
       <r>    -2.4906     0.0000     6.0000 </r>
       <r>    -2.3388     0.0000     6.0000 </r>
       <r>    -2.1870     0.0000     6.0000 </r>
       <r>    -2.0352     0.0000     6.0000 </r>
       <r>    -1.8834     0.0000     6.0000 </r>
       <r>    -1.7316     0.0000     6.0000 </r>
       <r>    -1.5799     0.0142     6.0002 </r>
       <r>    -1.4281     0.6855     6.0331 </r>
       <r>    -1.2763     1.5262     6.2593 </r>
       <r>    -1.1245     0.8300     6.4146 </r>
       <r>    -0.9727     0.5835     6.5206 </r>
       <r>    -0.8210     0.3661     6.5933 </r>
       <r>    -0.6692     0.2757     6.6397 </r>
       <r>    -0.5174     0.2523     6.6797 </r>
       <r>    -0.3656     0.2314     6.7164 </r>
       <r>    -0.2138     0.2121     6.7501 </r>
       <r>    -0.0620     0.1920     6.7808 </r>
       <r>     0.0897     0.1700     6.8083 </r>
       <r>     0.2415     0.1463     6.8323 </r>
       <r>     0.3933     0.1222     6.8526 </r>
       <r>     0.5451     0.1028     6.8696 </r>
       <r>     0.6969     0.0886     6.8841 </r>
       <r>     0.8487     0.0793     6.8968 </r>
       <r>     1.0004     0.0882     6.9087 </r>
       <r>     1.1522     0.2460     6.9317 </r>
       <r>     1.3040     0.5719     6.9924 </r>
       <r>     1.4558     0.7596     7.0967 </r>
       <r>     1.6076     0.9926     7.2261 </r>
       <r>     1.7593     0.6490     7.3336 </r>
       <r>     1.9111     0.6814     7.4337 </r>
       <r>     2.0629     0.7776     7.5437 </r>
       <r>     2.2147     0.8594     7.6686 </r>
       <r>     2.3665     0.9061     7.8021 </r>
       <r>     2.5183     0.9237     7.9418 </r>
       <r>     2.6700     0.9012     8.0805 </r>
       <r>     2.8218     0.8756     8.2151 </r>
       <r>     2.9736     0.8750     8.3476 </r>
       <r>     3.1254     0.8362     8.4763 </r>
       <r>     3.2772     0.8058     8.6017 </r>
       <r>     3.4290     0.7038     8.7172 </r>
       <r>     3.5807     0.4721     8.8077 </r>
       <r>     3.7325     0.3409     8.8674 </r>
       <r>     3.8843     0.2781     8.9142 </r>
       <r>     4.0361     0.2325     8.9527 </r>
       <r>     4.1879     0.1513     8.9833 </r>
       <r>     4.3396     0.0446     8.9973 </r>
       <r>     4.4914     0.0014     9.0000 </r>
       <r>     4.6432     0.0000     9.0000 </r>
       <r>     4.7950     0.0000     9.0000 </r>
       <r>     4.9468     0.0000     9.0000 </r>
       <r>     5.0986     0.0000     9.0000 </r>
       <r>     5.2503     0.0000     9.0000 </r>
       <r>     5.4021     0.0000     9.0000 </r>
       <r>     5.5539     0.0000     9.0000 </r>
       <r>     5.7057     0.0000     9.0000 </r>
       <r>     5.8575     0.0000     9.0000 </r>
       <r>     6.0093     0.0002     9.0000 </r>
       <r>     6.1610     0.0014     9.0001 </r>
       <r>     6.3128     0.0037     9.0005 </r>
       <r>     6.4646     0.0069     9.0013 </r>
[...]
       </set>
       <set comment="band 12">
        <r>  0.0857  0.0000  0.0000  0.0000  0.0062  0.0000  0.0023  0.0000  0.0008 </r>
        <r>  0.0000  0.1197  0.0000  0.2394  0.0000  0.0000  0.0000  0.0000  0.0000 </r>
       </set>
       <set comment="band 13">
        <r>  0.0000  0.0011  0.3037  0.0005  0.0000  0.0055  0.0000  0.0109  0.0001 </r>
        <r>  0.0000  0.0008  0.2201  0.0004  0.0000  0.0000  0.0000  0.0000  0.0000 </r>
       </set>
       <set comment="band 14">
        <r>  0.0000  0.2024  0.0016  0.1012  0.0018  0.0000  0.0000  0.0001  0.0146 </r>
        <r>  0.0000  0.1468  0.0012  0.0734  0.0000  0.0000  0.0000  0.0000  0.0000 </r>
       </set>
       <set comment="band 15">
        <r>  0.0000  0.0000  0.0000  0.0000  0.0000  0.0000  0.0000  0.0000  0.0000 </r>
        <r>  0.0000  0.0000  0.0000  0.0000  0.0000  0.0000  0.0000  0.0000  0.0000 </r>
       </set>
       <set comment="band 16">
        <r>  0.0000  0.0001  0.0146  0.0000  0.0001  0.0335  0.0000  0.0670  0.0007 </r>
        <r>  0.0000  0.0002  0.0375  0.0001  0.0000  0.0000  0.0000  0.0000  0.0000 </r>
       </set>
       <set comment="band 17">
        <r>  0.0000  0.0098  0.0001  0.0049  0.0112  0.0003  0.0000  0.0005  0.0894 </r>
        <r>  0.0000  0.0250  0.0003  0.0125  0.0000  0.0000  0.0000  0.0000  0.0000 </r>
       </set>
       <set comment="band 18">
        <r>  0.0000  0.0934  0.0000  0.1867  0.0100  0.0000  0.0338  0.0000  0.0013 </r>
        <r>  0.1375  0.0000  0.0000  0.0000  0.0000  0.0000  0.0000  0.0000  0.0000 </r>
       </set>
       <set comment="band 19">
        <r>  0.0000  0.0002  0.0000  0.0004  0.0026  0.0000  0.0089  0.0000  0.0003 </r>
        <r>  0.0202  0.0000  0.0000  0.0000  0.0000  0.0000  0.0000  0.0000  0.0000 </r>
       </set>
       <set comment="band 20">
        <r>  0.0000  0.0000  0.0000  0.0000  0.0000  0.2395  0.0000  0.1198  0.0000 </r>
        <r>  0.0000  0.0000  0.0000  0.0000  0.0000  0.0000  0.0000  0.0000  0.0000 </r>
       </set>
       <set comment="band 21">
        <r>  0.0000  0.0566  0.0080  0.0283  0.0003  0.0001  0.0000  0.0002  0.0027 </r>
        <r>  0.0000  0.0002  0.0000  0.0001  0.0000  0.0000  0.0000  0.0000  0.0000 </r>
       </set>
       <set comment="band 22">
        <r>  0.0000  0.0053  0.0849  0.0027  0.0000  0.0010  0.0000  0.0020  0.0002 </r>
        <r>  0.0000  0.0000  0.0004  0.0000  0.0000  0.0000  0.0000  0.0000  0.0000 </r>
       </set>
       <set comment="band 23">
        <r>  0.0139  0.0000  0.0000  0.0000  0.0325  0.0000  0.0122  0.0000  0.0041 </r>
        <r>  0.0000  0.0009  0.0000  0.0018  0.0000  0.0000  0.0000  0.0000  0.0000 </r>
       </set>
       <set comment="band 24">
        <r>  0.0000  0.0080  0.0191  0.0039  0.0083  0.0400  0.0000  0.0800  0.0664 </r>
        <r>  0.0000  0.0011  0.0026  0.0005  0.0000  0.0000  0.0000  0.0000  0.0000 </r>
       </set>
      </set>
      <set comment="kpoint 14">
       <set comment="band 1">
        <r>  0.0005  0.0003  0.0002  0.0008  0.2151  0.0432  0.5276  0.0709  0.0751 </r>
        <r>  0.0246  0.0001  0.0000  0.0005  0.0000  0.0000  0.0000  0.0000  0.0000 </r>
       </set>
       <set comment="band 2">
        <r>  0.0000  0.0000  0.0001  0.0000  0.1079  0.2405  0.1602  0.1533  0.3126 </r>
        <r>  0.0001  0.0010  0.0013  0.0003  0.0000  0.0000  0.0000  0.0000  0.0000 </r>
       </set>
       <set comment="band 3">
        <r>  0.0000  0.0001  0.0001  0.0000  0.0639  0.1596  0.0309  0.2950  0.4263 </r>
        <r>  0.0001  0.0015  0.0010  0.0004  0.0000  0.0000  0.0000  0.0000  0.0000 </r>
       </set>
       <set comment="band 4">
        <r>  0.0001  0.0000  0.0000  0.0000  0.5691  0.0067  0.2305  0.0227  0.1493 </r>
        <r>  0.0001  0.0001  0.0000  0.0002  0.0000  0.0000  0.0000  0.0000  0.0000 </r>
       </set>
       <set comment="band 5">
        <r>  0.0000  0.0000  0.0000  0.0000  0.0110  0.5261  0.0039  0.4330  0.0084 </r>
        <r>  0.0000  0.0000  0.0000  0.0000  0.0000  0.0000  0.0000  0.0000  0.0000 </r>
       </set>
       <set comment="band 6">
        <r>  0.0835  0.0058  0.0050  0.0275  0.0103  0.0027  0.0248  0.0062  0.0070 </r>
        <r>  0.4267  0.0006  0.0005  0.0042  0.0000  0.0000  0.0000  0.0000  0.0000 </r>
       </set>
       <set comment="band 7">
        <r>  0.3312  0.0095  0.0130  0.0118  0.0053  0.0004  0.0090  0.0012  0.0002 </r>
        <r>  0.0641  0.0177  0.0251  0.1079  0.0000  0.0000  0.0000  0.0000  0.0000 </r>
       </set>
       <set comment="band 8">
        <r>  0.0198  0.0225  0.0657  0.0718  0.0039  0.0066  0.0007  0.0010  0.0030 </r>
        <r>  0.0021  0.0626  0.1149  0.0690  0.0000  0.0000  0.0000  0.0000  0.0000 </r>
       </set>
       <set comment="band 9">
        <r>  0.0055  0.0896  0.0576  0.0111  0.0043  0.0022  0.0046  0.0043  0.0082 </r>
        <r>  0.0018  0.1788  0.1090  0.0071  0.0000  0.0000  0.0000  0.0000  0.0000 </r>
       </set>
       <set comment="band 10">
        <r>  0.1472  0.0366  0.0032  0.0296  0.0067  0.0069  0.0193  0.0015  0.0096 </r>
        <r>  0.0008  0.0763  0.0516  0.0238  0.0000  0.0000  0.0000  0.0000  0.0000 </r>
       </set>
       <set comment="band 11">
        <r>  0.1107  0.0383  0.0154  0.0518  0.0090  0.0003  0.0122  0.0003  0.0012 </r>
        <r>  0.0783  0.0109  0.0279  0.0906  0.0000  0.0000  0.0000  0.0000  0.0000 </r>
       </set>
       <set comment="band 12">
        <r>  0.0001  0.0660  0.0732  0.0166  0.0162  0.0134  0.0063  0.0018  0.0041 </r>
        <r>  0.0214  0.0187  0.0230  0.0049  0.0000  0.0000  0.0000  0.0000  0.0000 </r>
       </set>
       <set comment="band 13">
        <r>  0.0006  0.1071  0.1090  0.0136  0.0062  0.0079  0.0007  0.0126  0.0155 </r>
        <r>  0.0101  0.0558  0.0477  0.0418  0.0000  0.0000  0.0000  0.0000  0.0000 </r>
       </set>
       <set comment="band 14">
        <r>  0.0164  0.0183  0.0259  0.0077  0.0146  0.0136  0.0183  0.0016  0.0142 </r>
        <r>  0.0016  0.0072  0.0216  0.1007  0.0000  0.0000  0.0000  0.0000  0.0000 </r>
       </set>
       <set comment="band 15">
        <r>  0.0001  0.0107  0.0402  0.1436  0.0066  0.0079  0.0092  0.0432  0.0109 </r>
        <r>  0.0368  0.0015  0.0067  0.0075  0.0000  0.0000  0.0000  0.0000  0.0000 </r>
       </set>
       <set comment="band 16">
        <r>  0.0002  0.0349  0.0425  0.0135  0.0042  0.0120  0.0037  0.0114  0.0051 </r>
        <r>  0.0000  0.0008  0.0170  0.0666  0.0000  0.0000  0.0000  0.0000  0.0000 </r>
       </set>
       <set comment="band 17">
        <r>  0.0503  0.0171  0.0194  0.0407  0.0072  0.0024  0.0061  0.0068  0.0071 </r>
        <r>  0.0078  0.0063  0.0145  0.0119  0.0000  0.0000  0.0000  0.0000  0.0000 </r>
       </set>
       <set comment="band 18">
        <r>  0.0191  0.0073  0.0014  0.0184  0.0185  0.0318  0.0042  0.0143  0.0179 </r>
        <r>  0.0063  0.0113  0.0191  0.0085  0.0000  0.0000  0.0000  0.0000  0.0000 </r>
       </set>
       <set comment="band 19">
        <r>  0.0153  0.0396  0.0464  0.0105  0.0012  0.0064  0.0033  0.0141  0.0235 </r>
        <r>  0.0000  0.0250  0.0359  0.0116  0.0000  0.0000  0.0000  0.0000  0.0000 </r>
       </set>
       <set comment="band 20">
        <r>  0.0048  0.0487  0.0101  0.0509  0.0082  0.0304  0.0071  0.0440  0.0034 </r>
        <r>  0.0217  0.0535  0.0210  0.0091  0.0000  0.0000  0.0000  0.0000  0.0000 </r>
       </set>
       <set comment="band 21">
        <r>  0.0314  0.0029  0.0334  0.0880  0.0012  0.0110  0.0013  0.0328  0.0436 </r>
        <r>  0.0009  0.0014  0.0019  0.0005  0.0000  0.0000  0.0000  0.0000  0.0000 </r>
       </set>
       <set comment="band 22">
        <r>  0.0060  0.0005  0.0008  0.0004  0.0101  0.0014  0.0040  0.0027  0.0050 </r>
        <r>  0.0053  0.0180  0.0121  0.0000  0.0000  0.0000  0.0000  0.0000  0.0000 </r>
       </set>
       <set comment="band 23">
        <r>  0.0015  0.0186  0.0071  0.0161  0.0117  0.0580  0.0249  0.0494  0.0237 </r>
        <r>  0.0023  0.0044  0.0084  0.0051  0.0000  0.0000  0.0000  0.0000  0.0000 </r>
       </set>
       <set comment="band 24">
        <r>  0.0005  0.0035  0.0128  0.0128  0.0228  0.0445  0.0198  0.0382  0.0349 </r>
        <r>  0.0001  0.0438  0.0279  0.0041  0.0000  0.0000  0.0000  0.0000  0.0000 </r>
       </set>
      </set>
      <set comment="kpoint 15">
       <set comment="band 1">
        <r>  0.0003  0.0005  0.0002  0.0009  0.1669  0.0519  0.3434  0.0843  0.2815 </r>
        <r>  0.0277  0.0001  0.0000  0.0000  0.0000  0.0000  0.0000  0.0000  0.0000 </r>
       </set>
       <set comment="band 2">
        <r>  0.0000  0.0000  0.0000  0.0000  0.0802  0.1363  0.4465  0.0908  0.2212 </r>
        <r>  0.0000  0.0010  0.0010  0.0003  0.0000  0.0000  0.0000  0.0000  0.0000 </r>
       </set>
       <set comment="band 3">
        <r>  0.0000  0.0001  0.0001  0.0000  0.0566  0.2844  0.0486  0.3142  0.2729 </r>
        <r>  0.0001  0.0008  0.0014  0.0006  0.0000  0.0000  0.0000  0.0000  0.0000 </r>
       </set>
       <set comment="band 4">
        <r>  0.0000  0.0000  0.0000  0.0000  0.4868  0.1200  0.0843  0.1348  0.1534 </r>
        <r>  0.0000  0.0000  0.0000  0.0000  0.0000  0.0000  0.0000  0.0000  0.0000 </r>
       </set>
       <set comment="band 5">
        <r>  0.0000  0.0000  0.0000  0.0000  0.1788  0.3830  0.0356  0.3513  0.0331 </r>
        <r>  0.0000  0.0001  0.0000  0.0000  0.0000  0.0000  0.0000  0.0000  0.0000 </r>
       </set>
       <set comment="band 6">
        <r>  0.0324  0.0145  0.0064  0.0300  0.0130  0.0026  0.0221  0.0057  0.0219 </r>
        <r>  0.4726  0.0008  0.0003  0.0005  0.0000  0.0000  0.0000  0.0000  0.0000 </r>
       </set>
       <set comment="band 7">
        <r>  0.3978  0.0015  0.0005  0.0211  0.0008  0.0004  0.0004  0.0007  0.0008 </r>
        <r>  0.0157  0.0312  0.0115  0.1047  0.0000  0.0000  0.0000  0.0000  0.0000 </r>
       </set>
       <set comment="band 8">
        <r>  0.0241  0.0662  0.0267  0.0631  0.0025  0.0032  0.0067  0.0011  0.0008 </r>
        <r>  0.0062  0.1173  0.0447  0.0695  0.0000  0.0000  0.0000  0.0000  0.0000 </r>
       </set>
       <set comment="band 9">
        <r>  0.0017  0.0497  0.1069  0.0108  0.0030  0.0067  0.0025  0.0039  0.0020 </r>
        <r>  0.0002  0.0722  0.1970  0.0099  0.0000  0.0000  0.0000  0.0000  0.0000 </r>
       </set>
       <set comment="band 10">
        <r>  0.1835  0.0004  0.0127  0.0297  0.0012  0.0135  0.0178  0.0008  0.0076 </r>
        <r>  0.0285  0.0716  0.0758  0.0260  0.0000  0.0000  0.0000  0.0000  0.0000 </r>
       </set>
       <set comment="band 11">
        <r>  0.0175  0.0656  0.0408  0.0077  0.0037  0.0082  0.0206  0.0046  0.0038 </r>
        <r>  0.0304  0.0305  0.0262  0.0343  0.0000  0.0000  0.0000  0.0000  0.0000 </r>
       </set>
       <set comment="band 12">
        <r>  0.0695  0.0332  0.0753  0.0225  0.0086  0.0009  0.0063  0.0041  0.0033 </r>
        <r>  0.0138  0.0482  0.0127  0.1042  0.0000  0.0000  0.0000  0.0000  0.0000 </r>
       </set>
       <set comment="band 13">
        <r>  0.0003  0.0225  0.0054  0.0593  0.0203  0.0084  0.0015  0.0171  0.0244 </r>
        <r>  0.0124  0.0283  0.0099  0.0199  0.0000  0.0000  0.0000  0.0000  0.0000 </r>
       </set>
       <set comment="band 14">
        <r>  0.0000  0.1209  0.1152  0.0362  0.0157  0.0176  0.0074  0.0001  0.0093 </r>
        <r>  0.0321  0.0271  0.0328  0.0420  0.0000  0.0000  0.0000  0.0000  0.0000 </r>
       </set>
       <set comment="band 15">
        <r>  0.0005  0.0174  0.0309  0.0009  0.0041  0.0122  0.0066  0.0331  0.0137 </r>
        <r>  0.0058  0.0001  0.0286  0.0994  0.0000  0.0000  0.0000  0.0000  0.0000 </r>
       </set>
       <set comment="band 16">
        <r>  0.0006  0.0013  0.0211  0.1238  0.0037  0.0093  0.0141  0.0201  0.0033 </r>
        <r>  0.0298  0.0016  0.0004  0.0051  0.0000  0.0000  0.0000  0.0000  0.0000 </r>
       </set>
       <set comment="band 17">
        <r>  0.0362  0.0709  0.0383  0.0140  0.0172  0.0046  0.0025  0.0052  0.0053 </r>
        <r>  0.0009  0.0168  0.0071  0.0280  0.0000  0.0000  0.0000  0.0000  0.0000 </r>
       </set>
       <set comment="band 18">
        <r>  0.0126  0.0192  0.0180  0.0018  0.0059  0.0112  0.0050  0.0022  0.0017 </r>
        <r>  0.0032  0.0699  0.0260  0.0135  0.0000  0.0000  0.0000  0.0000  0.0000 </r>
       </set>
       <set comment="band 19">
        <r>  0.0030  0.0396  0.0299  0.0253  0.0018  0.0042  0.0055  0.0356  0.0190 </r>
        <r>  0.0003  0.0457  0.0568  0.0269  0.0000  0.0000  0.0000  0.0000  0.0000 </r>
       </set>
       <set comment="band 20">
        <r>  0.0036  0.0037  0.0107  0.0953  0.0039  0.0030  0.0083  0.0011  0.0032 </r>
        <r>  0.0035  0.0038  0.0008  0.0128  0.0000  0.0000  0.0000  0.0000  0.0000 </r>
       </set>
       <set comment="band 21">
        <r>  0.0331  0.0014  0.0008  0.0041  0.0119  0.0234  0.0061  0.0242  0.0485 </r>
        <r>  0.0118  0.0004  0.0013  0.0004  0.0000  0.0000  0.0000  0.0000  0.0000 </r>
       </set>
       <set comment="band 22">
        <r>  0.0093  0.0009  0.0030  0.0057  0.0414  0.0426  0.0058  0.0449  0.0256 </r>
        <r>  0.0065  0.0026  0.0049  0.0005  0.0000  0.0000  0.0000  0.0000  0.0000 </r>
       </set>
       <set comment="band 23">
        <r>  0.0034  0.0219  0.0087  0.0432  0.0109  0.0226  0.0178  0.0117  0.0118 </r>
        <r>  0.0012  0.0194  0.0469  0.0003  0.0000  0.0000  0.0000  0.0000  0.0000 </r>
       </set>
       <set comment="band 24">
        <r>  0.0053  0.0296  0.0130  0.0137  0.0124  0.0325  0.0067  0.0143  0.0151 </r>
        <r>  0.0094  0.0015  0.0006  0.0002  0.0000  0.0000  0.0000  0.0000  0.0000 </r>
       </set>
      </set>
      <set comment="kpoint 16">
       <set comment="band 1">
        <r>  0.0000  0.0005  0.0002  0.0008  0.1767  0.0293  0.5633  0.0586  0.0990 </r>
        <r>  0.0283  0.0000  0.0000  0.0000  0.0000  0.0000  0.0000  0.0000  0.0000 </r>
       </set>
       <set comment="band 2">
        <r>  0.0000  0.0000  0.0001  0.0000  0.0855  0.1315  0.1407  0.2631  0.3560 </r>
        <r>  0.0002  0.0006  0.0009  0.0003  0.0000  0.0000  0.0000  0.0000  0.0000 </r>
       </set>
       <set comment="band 3">
        <r>  0.0000  0.0001  0.0001  0.0000  0.1575  0.1421  0.0426  0.2690  0.3662 </r>
        <r>  0.0000  0.0009  0.0008  0.0009  0.0000  0.0000  0.0000  0.0000  0.0000 </r>
       </set>
       <set comment="band 4">
        <r>  0.0001  0.0000  0.0000  0.0000  0.5318  0.0386  0.1956  0.0652  0.1468 </r>
        <r>  0.0000  0.0001  0.0000  0.0002  0.0000  0.0000  0.0000  0.0000  0.0000 </r>
       </set>
       <set comment="band 5">
        <r>  0.0000  0.0000  0.0000  0.0000  0.0158  0.6374  0.0058  0.3198  0.0038 </r>
        <r>  0.0000  0.0000  0.0000  0.0000  0.0000  0.0000  0.0000  0.0000  0.0000 </r>
       </set>
       <set comment="band 6">
        <r>  0.0000  0.0203  0.0070  0.0337  0.0120  0.0031  0.0372  0.0061  0.0096 </r>
        <r>  0.4960  0.0000  0.0000  0.0000  0.0000  0.0000  0.0000  0.0000  0.0000 </r>
       </set>
       <set comment="band 7">
        <r>  0.4592  0.0001  0.0001  0.0000  0.0023  0.0002  0.0009  0.0001  0.0003 </r>
        <r>  0.0000  0.0486  0.0152  0.0819  0.0000  0.0000  0.0000  0.0000  0.0000 </r>
       </set>
       <set comment="band 8">
        <r>  0.0035  0.0515  0.0773  0.0258  0.0067  0.0030  0.0024  0.0034  0.0041 </r>
        <r>  0.0000  0.0860  0.0993  0.0727  0.0000  0.0000  0.0000  0.0000  0.0000 </r>
       </set>
       <set comment="band 9">
        <r>  0.0000  0.0633  0.0668  0.0598  0.0002  0.0006  0.0000  0.0012  0.0016 </r>
        <r>  0.0006  0.0807  0.1211  0.0404  0.0000  0.0000  0.0000  0.0000  0.0000 </r>
       </set>
       <set comment="band 10">
        <r>  0.0000  0.0365  0.0046  0.0683  0.0116  0.0012  0.0377  0.0023  0.0045 </r>
        <r>  0.0408  0.0274  0.0411  0.0137  0.0000  0.0000  0.0000  0.0000  0.0000 </r>
       </set>
       <set comment="band 11">
        <r>  0.2183  0.0066  0.0099  0.0033  0.0211  0.0010  0.0079  0.0009  0.0033 </r>
        <r>  0.0000  0.0561  0.0399  0.0722  0.0000  0.0000  0.0000  0.0000  0.0000 </r>
       </set>
       <set comment="band 12">
        <r>  0.0000  0.0645  0.0721  0.0568  0.0021  0.0063  0.0002  0.0126  0.0168 </r>
        <r>  0.0513  0.0300  0.0449  0.0150  0.0000  0.0000  0.0000  0.0000  0.0000 </r>
       </set>
       <set comment="band 13">
        <r>  0.0536  0.0362  0.0543  0.0181  0.0105  0.0099  0.0037  0.0071  0.0051 </r>
        <r>  0.0000  0.0437  0.0073  0.0801  0.0000  0.0000  0.0000  0.0000  0.0000 </r>
       </set>
       <set comment="band 14">
        <r>  0.0019  0.0731  0.1097  0.0366  0.0035  0.0089  0.0003  0.0170  0.0224 </r>
        <r>  0.0000  0.0966  0.0898  0.1033  0.0000  0.0000  0.0000  0.0000  0.0000 </r>
       </set>
       <set comment="band 15">
        <r>  0.0000  0.0551  0.0663  0.0439  0.0060  0.0072  0.0122  0.0144  0.0196 </r>
        <r>  0.0001  0.0029  0.0043  0.0014  0.0000  0.0000  0.0000  0.0000  0.0000 </r>
       </set>
       <set comment="band 16">
        <r>  0.0081  0.0024  0.0036  0.0012  0.0074  0.0404  0.0025  0.0232  0.0062 </r>
        <r>  0.0000  0.0475  0.0249  0.0701  0.0000  0.0000  0.0000  0.0000  0.0000 </r>
       </set>
       <set comment="band 17">
        <r>  0.0000  0.0405  0.0118  0.0692  0.0029  0.0002  0.0096  0.0004  0.0009 </r>
        <r>  0.0552  0.0013  0.0020  0.0007  0.0000  0.0000  0.0000  0.0000  0.0000 </r>
       </set>
       <set comment="band 18">
        <r>  0.0000  0.0088  0.0115  0.0062  0.0002  0.0000  0.0007  0.0001  0.0001 </r>
        <r>  0.0028  0.0001  0.0002  0.0001  0.0000  0.0000  0.0000  0.0000  0.0000 </r>
       </set>
       <set comment="band 19">
        <r>  0.0000  0.0572  0.0167  0.0977  0.0041  0.0016  0.0119  0.0032  0.0047 </r>
        <r>  0.0309  0.0531  0.0796  0.0265  0.0000  0.0000  0.0000  0.0000  0.0000 </r>
       </set>
       <set comment="band 20">
        <r>  0.0196  0.0001  0.0002  0.0001  0.0117  0.0526  0.0015  0.0603  0.0610 </r>
        <r>  0.0000  0.0028  0.0015  0.0040  0.0000  0.0000  0.0000  0.0000  0.0000 </r>
       </set>
       <set comment="band 21">
        <r>  0.0000  0.0526  0.0368  0.0684  0.0032  0.0054  0.0045  0.0108  0.0146 </r>
        <r>  0.0098  0.0001  0.0001  0.0000  0.0000  0.0000  0.0000  0.0000  0.0000 </r>
       </set>
       <set comment="band 22">
        <r>  0.0015  0.0006  0.0009  0.0003  0.0253  0.0683  0.0085  0.0460  0.0239 </r>
        <r>  0.0000  0.0012  0.0005  0.0018  0.0000  0.0000  0.0000  0.0000  0.0000 </r>
       </set>
       <set comment="band 23">
        <r>  0.0679  0.0048  0.0072  0.0024  0.0085  0.0585  0.0030  0.0319  0.0057 </r>
        <r>  0.0000  0.0011  0.0004  0.0017  0.0000  0.0000  0.0000  0.0000  0.0000 </r>
       </set>
       <set comment="band 24">
        <r>  0.0154  0.0004  0.0006  0.0002  0.0160  0.0011  0.0058  0.0023  0.0050 </r>
        <r>  0.0000  0.0069  0.0075  0.0062  0.0000  0.0000  0.0000  0.0000  0.0000 </r>
       </set>
      </set>
     </set>
    </set>
   </array>
  </projected>
 </calculation>
 <structure name="finalpos" >
  <crystal>
   <varray name="basis" >
    <v>       3.61541800       0.00000000       2.08736254 </v>
    <v>       1.20513900       3.40864864       2.08736254 </v>
    <v>       0.00000000       0.00000000       4.17472507 </v>
   </varray>
   <i name="volume">     51.44801605 </i>
   <varray name="rec_basis" >
    <v>       0.27659319      -0.09779044       0.00000000 </v>
    <v>       0.00000000       0.29337139       0.00000000 </v>
    <v>      -0.13829660      -0.09779048       0.23953673 </v>
   </varray>
  </crystal>
  <varray name="positions" >
   <v>       0.00000000       0.00000000       0.00000000 </v>
   <v>       0.25000000       0.25000000       0.25000000 </v>
  </varray>
 </structure>
</modeling>
